/*--------------------------------*- C++ -*----------------------------------*\
| =========                 |                                                 |
| \\      /  F ield         | OpenFOAM: The Open Source CFD Toolbox           |
|  \\    /   O peration     | Version:  1912                                  |
|   \\  /    A nd           | Website:  www.openfoam.com                      |
|    \\/     M anipulation  |                                                 |
\*---------------------------------------------------------------------------*/
FoamFile
{
    version     2.0;
    format      ascii;
    class       volScalarField;
    location    "0";
    object      moment.3.populationBalance;
}
// * * * * * * * * * * * * * * * * * * * * * * * * * * * * * * * * * * * * * //

dimensions      [0 0 0 0 0 0 0];


internalField   nonuniform List<scalar> 
100
(
0
2.149939898442510559080382988216754817922815590236496063880622387e-10
1.104344643791947862265789837010743212886154651641845703125e-06
4.42438369255764048899003115788985951439826749265193939208984375e-05
0.000350609429006077289066312108190004437346942722797393798828125
0.00132617342201170481351402141712014781660400331020355224609375
0.0033580477378976187306791612030565374880097806453704833984375
0.00666504148180876478113621175225489423610270023345947265625
0.01127495715466953797589955144076157012023031711578369140625
0.0170691245087147454306819582825482939369976520538330078125
0.0238417606851702469639153747493764967657625675201416015625
0.031350418251413103565283790885587222874164581298828125
0.039351199545783831224010640426058671437203884124755859375
0.047619915251403542588715112060526735149323940277099609375
0.05596265925487846348840292876047897152602672576904296875
0.06421932087325983584680244575793039985001087188720703125
0.07226284008955918825023445606348104774951934814453125
0.07999618478094179530035745528948609717190265655517578125
0.08734833237685067641731251342207542620599269866943359375
0.09427002640438496283703528888509026728570461273193359375
0.1007297320690621889038851577424793504178524017333984375
0.106709994939079233500223153896513395011425018310546875
0.1122042746335105423138855940123903565108776092529296875
0.1172142508633463864331503145876922644674777984619140625
0.121747560602979698618497650386416353285312652587890625
0.1258159080851651012711300836599548347294330596923828125
0.129433484464371917344038820374407805502414703369140625
0.132615635746271942618790262713446281850337982177734375
0.135377722712921533254615269470377825200557708740234375
0.13773412347385949328071319541777484118938446044921875
0.1396973374641252430006232998493942432105541229248046875
0.1412771596120748485159168694735853932797908782958984375
0.14247990629615203683755453312187455594539642333984375
0.143307692862873869987794250846491195261478424072265625
0.1437577893541983342640122600641916505992412567138671875
0.1438221215985063528020049261613166891038417816162109375
0.1434870453313077387491603076341561973094940185546875
0.142733608678500212274542491286410950124263763427734375
0.1415386385820882331199044301683898083865642547607421875
0.139877136838074955793587150765233673155307769775390625
0.137726626039690103198154247365891933441162109375
0.1350741672811609228599394327829941175878047943115234375
0.1319265919383493523842076911023468710482120513916015625
0.1283236427894233477875474136453703977167606353759765625
0.12435141255253832903715505153741105459630489349365234375
0.12014849735866206525969346330384723842144012451171875
0.1158897269642822080992772271201829425990581512451171875
0.11173299776055194143520310490202973596751689910888671875
0.1077584283938308740147249409346841275691986083984375
0.10398122611313924401610364611769909970462322235107421875
0.10040307805781346905948936409913585521280765533447265625
0.0970254542253555507524964696131064556539058685302734375
0.0938497307815497616712008266404154710471630096435546875
0.0908669790168533941798756359276012517511844635009765625
0.08802391769007493482757098490765201859176158905029296875
0.085228965521226218715611366860684938728809356689453125
0.082405101916681378071416474995203316211700439453125
0.07951958650192401945044906597104272805154323577880859375
0.07658105919168030351062981253562611527740955352783203125
0.073624019656212180695575852951151318848133087158203125
0.070693716529496963829615197028033435344696044921875
0.06783562567632983597576412648777477443218231201171875
0.06508952701830307552288701344878063537180423736572265625
0.062486936676082079078486941625669714994728565216064453125
0.060050602329492851205738901398945017717778682708740234375
0.057795081279311759370198586793776485137641429901123046875
0.055727759935530356283361896885253372602164745330810546875
0.05384993820256080143682453353903838433325290679931640625
0.052157780954384232174891877775735338218510150909423828125
0.0506430489013069695669599923348869197070598602294921875
0.049293584481680301212502826047057169489562511444091796875
0.04809356313139918903676317540885065682232379913330078125
0.0470235393997504302898704509061644785106182098388671875
0.04606032950050255314611291623805300332605838775634765625
0.0451767824190177080811992027520318515598773956298828125
0.04434150385533726368425533337358501739799976348876953125
0.0435186127667614719438660131345386616885662078857421875
0.0426676296219083706073860184915247373282909393310546875
0.041743618198012651110406778798278537578880786895751953125
0.040697727264439383099148273004175280220806598663330078125
0.0394783019404862101087161363466293551027774810791015625
0.038032752417403170586140959130716510117053985595703125
0.036310373426282523123820311639065039344131946563720703125
0.034266291498813057636585455156819080002605915069580078125
0.03186666415552986963977133427761145867407321929931640625
0.02909514393687649691511154514955705963075160980224609375
0.0259604184867256414237512984755085199140012264251708984375
0.0225042998725601441079025022418136359192430973052978515625
0.0188093024287971817554154796425791573710739612579345703125
0.0150038562377736613140388755027743172831833362579345703125
0.01126222668480034681814938579691443010233342647552490234375
0.007794961363593053658982423570478204055689275264739990234375
0.00482474626286985043555066710041501210071146488189697265625
0.002543257148782202860248791154162972816266119480133056640625
0.0010500015365801497295439315138310121255926787853240966796875
0.00028998101763180370547823283544630612595938146114349365234375
3.81996314926330584834691939111195324585423804819583892822265625e-05
9.947747202024105688352622126058300011663959594443440437316894531e-07
2.019644747503998508896065016183260336368743281809656764380633831e-10
0
)
;

boundaryField
{
    left
    {
        type            cyclic;
    }
    right
    {
        type            cyclic;
    }
    frontAndBack
    {
        type            empty;
    }
}


// ************************************************************************* //
