/*--------------------------------*- C++ -*----------------------------------*\
| =========                 |                                                 |
| \\      /  F ield         | OpenFOAM: The Open Source CFD Toolbox           |
|  \\    /   O peration     | Version:  1912                                  |
|   \\  /    A nd           | Website:  www.openfoam.com                      |
|    \\/     M anipulation  |                                                 |
\*---------------------------------------------------------------------------*/
FoamFile
{
    version     2.0;
    format      ascii;
    class       volScalarField;
    location    "0";
    object      moment.6.populationBalance;
}
// * * * * * * * * * * * * * * * * * * * * * * * * * * * * * * * * * * * * * //

dimensions      [0 3 0 0 0 0 0];


internalField   nonuniform List<scalar> 
100
(
0
1.061220325693391496908423197701343710513954832208582956809550524e-10
5.473502102208459028838969176455897525102045619860291481018066406e-07
2.197569197720829000546917397773682978368015028536319732666015625e-05
0.00017418696986933328470226189921277182293124496936798095703125
0.00065780341340027971043513677074088263907469809055328369140625
0.0016600390270957352499558989933348129852674901485443115234375
0.0032781889779406668365691057687172360601834952831268310546875
0.005508624817018657748857179967671982012689113616943359375
0.008271197550566371237135143701380002312362194061279296875
0.01144170334164026740786379576775289024226367473602294921875
0.01487962787119115858069928748363963677547872066497802734375
0.018447558735495105108892488487981609068810939788818359375
0.0220227658936304297732089452210857416503131389617919921875
0.02550279486510852178238195619996986351907253265380859375
0.0288070152680014353319126740871070069260895252227783203125
0.031875711290640103279248052103866939432919025421142578125
0.0346678569486108256736400790032348595559597015380859375
0.037158331564766756971440742063350626267492771148681640625
0.03933503850345486385631232906234799884259700775146484375
0.041196187622197288913383772523957304656505584716796875
0.042747870066400579791565661480490234680473804473876953125
0.044001972821265757096487192256972775794565677642822265625
0.044974433300654814704699901994899846613407135009765625
0.04568380901960376883064185449256910942494869232177734375
0.04615012568372485468604082825549994595348834991455078125
0.04639396332531198208215528211439959704875946044921875
0.04643574093585119133553718029361334629356861114501953125
0.04629516326728812247726096984479227103292942047119140625
0.045990797882903333704263104664278216660022735595703125
0.04553975551540605237743619682078133337199687957763671875
0.04495745213049477662092812124683405272662639617919921875
0.044257436906035819978999512613881961442530155181884765625
0.0434512769961179490252334289834834635257720947265625
0.042548498090823790029890716368754510767757892608642578125
0.0415565902936495812358685952858650125563144683837890625
0.04048110279434842528889504364997264929115772247314453125
0.039325869245067306134711060394693049602210521697998046875
0.0380934290079897042158307840509223751723766326904296875
0.036785735773936116543847418824952910654246807098388671875
0.035405267562073870768468708547516143880784511566162109375
0.03395665283097658304622967762043117545545101165771484375
0.03244886603451933859698641526847495697438716888427734375
0.03089783936971823852246643582475371658802032470703125
0.02932882997841489147727855879566050134599208831787109375
0.027776853933225979786936221671567182056605815887451171875
0.0262820575467327503804693122901880997233092784881591796875
0.0248774941720734700523198767996291280724108219146728515625
0.0235766120657496559831489690850503393448889255523681640625
0.0223778572498339600738148646996705792844295501708984375
0.0212768690528986580134951367426765500567853450775146484375
0.0202695171177424866837402106511945021338760852813720703125
0.0193519456763483997663310987036311416886746883392333984375
0.0185185089803826287424559637884158291853964328765869140625
0.0177550267432311469073535903362426324747502803802490234375
0.0170403698028601009728522086561497417278587818145751953125
0.0163570642468916054024230533059380832128226757049560546875
0.0156967733010006556260140797576241311617195606231689453125
0.015059287990458226913492723042509169317781925201416015625
0.01444926943808629016263722633084398694336414337158203125
0.01387329534846405525161383565091455238871276378631591796875
0.01333792540206832528959512984556567971594631671905517578125
0.0128486979537658051186976848612175672315061092376708984375
0.01240976416202027414470432375992459128610789775848388671875
0.01202388669096436830951990515359284472651779651641845703125
0.01169260830950495655411458528760704211890697479248046875
0.0114164692605955610249512943710215040482580661773681640625
0.01119520536912699433529372328166573424823582172393798828125
0.011027892261688147790277270132719422690570354461669921875
0.010913019975475481138094124844428733922541141510009765625
0.0108484918489934779872729819771848269738256931304931640625
0.0108315459554278424592066443210569559596478939056396484375
0.0108585993222596356722053911880720988847315311431884765625
0.0109250167832299072134816242396482266485691070556640625
0.01102480901401757529267655399962677620351314544677734375
0.01115026931086154395045273446385181159712374210357666015625
0.01129156702089845025482883755785223911516368389129638671875
0.0114363281057937062057394683733946294523775577545166015625
0.01156925072571395908538338659354849369265139102935791015625
0.0116718260716891682193807611156444181688129901885986328125
0.01172226119093577011154305722584467730484902858734130859375
0.01169572913758749367618694492421127506531774997711181640625
0.011565098376935679935773038096158416010439395904541015625
0.01130231117591129312571762710604161839000880718231201171875
0.0108805791996078003724957028452990925870835781097412109375
0.0102775281671501732272400175816073897294700145721435546875
0.00947933008961840926909214744000564678572118282318115234375
0.00848568116069629667375107118232335778884589672088623046875
0.007315177653068999884256040644459062605164945125579833984375
0.0060101705766091133298356652403526823036372661590576171875
0.004639519317460128432217825178440762101672589778900146484375
0.0032968627450572830263342272161253276863135397434234619140625
0.0020913242673309680001725308073901032912544906139373779296875
0.00112765388103428713766074320545840237173251807689666748046875
0.00047528921445365128473081739457484218291938304901123046875
0.00013373260272343386544612042765578507896861992776393890380859375
1.7911218816418596265320484217653529412928037345409393310546875e-05
4.73234416857424653054219054748585904235369525849819183349609375e-07
9.727370178153716235454073946157149861690971448524578590877354145e-11
0
)
;

boundaryField
{
    left
    {
        type            cyclic;
    }
    right
    {
        type            cyclic;
    }
    frontAndBack
    {
        type            empty;
    }
}


// ************************************************************************* //
