/*--------------------------------*- C++ -*----------------------------------*\
| =========                 |                                                 |
| \\      /  F ield         | OpenFOAM: The Open Source CFD Toolbox           |
|  \\    /   O peration     | Version:  1912                                  |
|   \\  /    A nd           | Website:  www.openfoam.com                      |
|    \\/     M anipulation  |                                                 |
\*---------------------------------------------------------------------------*/
FoamFile
{
    version     2.0;
    format      ascii;
    class       volScalarField;
    location    "0";
    object      moment.2.populationBalance;
}
// * * * * * * * * * * * * * * * * * * * * * * * * * * * * * * * * * * * * * //

dimensions      [0 -1 0 0 0 0 0];


internalField   nonuniform List<scalar> 
100
(
0
2.914709940769943539932521261580800758794751459390681702643632889e-10
1.493048941423855408068446619374025630122559960000216960906982422e-06
5.97033623196513329642841350075599393676384352147579193115234375e-05
0.000472617133322858983500436291791402254602871835231781005859375
0.00178720889101917205545044797787568313651718199253082275390625
0.00452778144744821718636895724330315715633332729339599609375
0.0089979625730482216960925967441653483547270298004150390625
0.0152511459967765543310758147299566189758479595184326171875
0.0231490336107659511188927581315510906279087066650390625
0.032438899238508907274525228103811969049274921417236328125
0.04281874689148344736988605063743307255208492279052734375
0.053982493627005724567968769633807823993265628814697265625
0.0656469760090273302122199083896703086793422698974609375
0.07756541489476258266488883919009822420775890350341796875
0.08953193040355676701747000834075151942670345306396484375
0.1013807139190792128147222683764994144439697265625
0.1129823709964354605528313868489931337535381317138671875
0.12423904525139452259541172907120198942720890045166015625
0.1350792779389894671115968094454728998243808746337890625
0.145453119860505297733510587931959889829158782958984375
0.1553277370813172797436862992981332354247570037841796875
0.1646835887567871525849483305137255229055881500244140625
0.173511164634393255656874544001766480505466461181640625
0.1818082236938651508051378868913161568343639373779296875
0.189577455481680534621347078427788801491260528564453125
0.1968244803826719735440065051079727709293365478515625
0.2035561073963179923307365015716641210019588470458984375
0.20977877410039325045687519377679564058780670166015625
0.21549710164679225510298010703991167247295379638671875
0.2207125076506606387027886739815585315227508544921875
0.2254218328645023750045339738790062256157398223876953125
0.22961595618891561532137757239979691803455352783203125
0.23327840129755428311142395614297129213809967041015625
0.2363839837843156044261405668294173665344715118408203125
0.2388976201736756899141056464941357262432575225830078125
0.2407735326814992304900187036764691583812236785888671875
0.2419552521153139068577075931898434646427631378173828125
0.2423770599636181632963172205563751049339771270751953125
0.24196782046631282181436972678056918084621429443359375
0.2406584947482553193953691561546293087303638458251953125
0.2383948642780404914010006223179516382515430450439453125
0.235156768940627924902031509191147051751613616943359375
0.230983703687223485001567269137012772262096405029296875
0.22600235436982962777818784161354415118694305419921875
0.220442126454271691837760727139539085328578948974609375
0.2146096383817255592862949242771719582378864288330078125
0.2087923468262471715650718806500663049519062042236328125
0.203142099978099566204292614202131517231464385986328125
0.197692833169559267769699317796039395034313201904296875
0.1924536496015478992394065471671638078987598419189453125
0.18743337661750658629244981057127006351947784423828125
0.182640720127914324422135905479080975055694580078125
0.178064170941119981339539890541345812380313873291015625
0.1736041181651969689259118467816733755171298980712890625
0.16908228754113385772228639325476251542568206787109375
0.16434567267188804340349861377035267651081085205078125
0.1593278705895914970636084717625635676085948944091796875
0.154046133351983416392982917386689223349094390869140625
0.1485720413420269780946370019591995514929294586181640625
0.14300163453121139678358986202511005103588104248046875
0.1374338575455769373423464685401995666325092315673828125
0.131957850904058648922045904328115284442901611328125
0.1266469359183284015824000334760057739913463592529296875
0.12155687489476614537853293995794956572353839874267578125
0.11672650252016990302106336230281158350408077239990234375
0.11217944627974728299957263288888498209416866302490234375
0.1079261609592425397163850675497087650001049041748046875
0.10396585609704205033221313669855589978396892547607421875
0.10028812017279788160184494927307241596281528472900390625
0.0968741790081147080559986761727486737072467803955078125
0.093697801380908829482763167106895707547664642333984375
0.09072590646396354319147548039836692623794078826904296875
0.08791895151619806558773717597432550974190235137939453125
0.085231194258468201407907827160670422017574310302734375
0.0826109382473303732741243265991215594112873077392578125
0.080000884116283754732279476229450665414333343505859375
0.077338725588886936268551153261796571314334869384765625
0.07455814602123556067425624860334210097789764404296875
0.07159038702032462231361620297320769168436527252197265625
0.0683665723043039019746203166505438275635242462158203125
0.064820972803679988150094004595302976667881011962890625
0.06089538620917654687669795521287596784532070159912109375
0.05654476531924342019852502971843932755291461944580078125
0.0517441482783189410366020410947385244071483612060546875
0.04649679435793940829313442009151913225650787353515625
0.04084317164679916734026932090273476205766201019287109375
0.0348700202520596802546748449458391405642032623291015625
0.028718051424651058756154498041723854839801788330078125
0.0225858628823790603956656042328177136369049549102783203125
0.0167263287684018269185770577678340487182140350341796875
0.01143022249341510594711213144591965829022228717803955078125
0.006990809856174750626378600060206736088730394840240478515625
0.0036443918767076733354615125648479079245589673519134521484375
0.00148933706435707443986593556672914928640238940715789794921875
0.00040751158605567918725987031081103850738145411014556884765625
5.32358677058769795098318311499241417550365440547466278076171875e-05
1.376120894544574664502341494742854166588585940189659595489501953e-06
2.775915926583600378866746539243152633313904686929163290187716484e-10
0
)
;

boundaryField
{
    left
    {
        type            cyclic;
    }
    right
    {
        type            cyclic;
    }
    frontAndBack
    {
        type            empty;
    }
}


// ************************************************************************* //
