/*--------------------------------*- C++ -*----------------------------------*\
| =========                 |                                                 |
| \\      /  F ield         | OpenFOAM: The Open Source CFD Toolbox           |
|  \\    /   O peration     | Version:  1912                                  |
|   \\  /    A nd           | Website:  www.openfoam.com                      |
|    \\/     M anipulation  |                                                 |
\*---------------------------------------------------------------------------*/
FoamFile
{
    version     2.0;
    format      ascii;
    class       volScalarField;
    location    "0";
    object      moment.1.populationBalance;
}
// * * * * * * * * * * * * * * * * * * * * * * * * * * * * * * * * * * * * * //

dimensions      [0 -2 0 0 0 0 0];


internalField   nonuniform List<scalar> 
100
(
0
4.174916472691079595449241022506181586493312352104112505912780762e-10
2.129562657831544813033649785061207637681945925578474998474121094e-06
8.4886310156833606516309231881933783370186574757099151611328125e-05
0.000670520098359516140106018067257309667184017598628997802734375
0.0025325814428120226214080634719039153424091637134552001953125
0.00641449089202874613013793947402518824674189090728759765625
0.0127553564187374603167146602800130494870245456695556640625
0.021651385362891552299746678045266889967024326324462890625
0.0329377701581921311646539152206969447433948516845703125
0.046294502307506250893265331569637055508792400360107421875
0.06133440354026832574962924127248697914183139801025390625
0.07766343126086390491469302332916413433849811553955078125
0.09491628327992542024649225140819908119738101959228515625
0.11277388994222913021214793616309179924428462982177734375
0.1309691106937852234093355718869133852422237396240234375
0.1492854989857188841018142966277082450687885284423828125
0.1675524694875646647407307909816154278814792633056640625
0.18563896786357714230319970738491974771022796630859375
0.203446864774622204752319021281437017023563385009765625
0.220904717630085956070473685031174682080745697021484375
0.2379621859768615010910508544839103706181049346923828125
0.254585177690287600693608283108915202319622039794921875
0.270751689132138151361317568444064818322658538818359375
0.2864482456539436672215970247634686529636383056640625
0.301666824792205245930887258509756065905094146728515625
0.316402138042392533368030171914142556488513946533203125
0.330649149296875666248496372645604424178600311279296875
0.344400714156227250040132048525265417993068695068359375
0.35764523254977664823428540330496616661548614501953125
0.37036421790909723750218063287320546805858612060546875
0.382529702273639637954971703948103822767734527587890625
0.394101423679280304934735568167525343596935272216796875
0.40502378928695659254799465998075902462005615234375
0.415222689586959237129093480689334683120250701904296875
0.4246023775285527879219671376631595194339752197265625
0.433042852235115349746052970658638514578342437744140625
0.440398538988941268268462181367794983088970184326171875
0.446499575729035813598244430977501906454563140869140625
0.45115772101993367737549078810843639075756072998046875
0.454179733053739209669430465510231442749500274658203125
0.45539177933400321052204162697307765483856201171875
0.454678317398408304850221384185715578496456146240234375
0.452036293083452445085157478388282470405101776123046875
0.447637029958119436745533903376781381666660308837890625
0.4418682054944456094602855955599807202816009521484375
0.43529495689875818964509335273760370910167694091796875
0.428471835451878835243633147911168634891510009765625
0.421699019436662381199454330271692015230655670166015625
0.41504330575489445376291541833779774606227874755859375
0.408521670140769843637684743953286670148372650146484375
0.402150975679468170032038187855505384504795074462890625
0.395948197177248051303877218742854893207550048828125
0.3898863191624626356457383735687471926212310791015625
0.383742062024703234346389990605530329048633575439453125
0.377108251810405470383358306207810528576374053955078125
0.3696213529987588675140841587563045322895050048828125
0.36110528088736371099543021045974455773830413818359375
0.351574491312627801509194114260026253759860992431640625
0.34117466830362996876857550887507386505603790283203125
0.3301179089767085628182030632160604000091552734375
0.31863358766063054616779481875710189342498779296875
0.306937627555914749333254576413310132920742034912109375
0.2952164299289272708648468324099667370319366455078125
0.28362062874920079824647700661444105207920074462890625
0.272264651810863844705323799644247628748416900634765625
0.261229270796789536657200869740336202085018157958984375
0.25056536971164800053912813382339663803577423095703125
0.2402979241176002866975380811709328554570674896240234375
0.230429686988757875809596953331492841243743896484375
0.2209443863659024120948970448807813227176666259765625
0.21180941894267968361731391269131563603878021240234375
0.2029781211427940934566294117757934145629405975341796875
0.1943917487150012834984380560854333452880382537841796875
0.1859813187621176810981893368079909123480319976806640625
0.17766947723793979907469520185259170830249786376953125
0.16937255745963819553168150378041900694370269775390625
0.161002994700894463964147007573046721518039703369140625
0.1524722598144755136839734177556238137185573577880859375
0.14369447087368614202063099583028815686702728271484375
0.13459083434349661256845820389571599662303924560546875
0.125095052636980230698071636652457527816295623779296875
0.1151598061724005972461526425831834785640239715576171875
0.1047643627944616906422226065842551179230213165283203125
0.0939232641945876023381600816719583235681056976318359375
0.0826958523834030179155973883098340593278408050537109375
0.0711960743582392419082083279135986231267452239990234375
0.05960146101105877336490124207557528279721736907958984375
0.048159317539409773889502730526146478950977325439453125
0.0371868921441622923840242265214328654110431671142578125
0.0270605947672663445235929913224026677198708057403564453125
0.018187479069113721141803807768155820667743682861328125
0.01095113776232130298193823136898572556674480438232421875
0.0056264190247102552344671266837394796311855316162109375
0.0022686031239704178112670529543493103119544684886932373046875
0.000613144711980277506112313457009577177814207971096038818359375
7.9212492416347240011854913266375888269976712763309478759765625e-05
2.027335072090340522198929212871476579493901226669549942016601562e-06
4.053850980256126486635450375178380336138594941530755022540688515e-10
0
)
;

boundaryField
{
    left
    {
        type            cyclic;
    }
    right
    {
        type            cyclic;
    }
    frontAndBack
    {
        type            empty;
    }
}


// ************************************************************************* //
