/*--------------------------------*- C++ -*----------------------------------*\
| =========                 |                                                 |
| \\      /  F ield         | OpenFOAM: The Open Source CFD Toolbox           |
|  \\    /   O peration     | Version:  1912                                  |
|   \\  /    A nd           | Website:  www.openfoam.com                      |
|    \\/     M anipulation  |                                                 |
\*---------------------------------------------------------------------------*/
FoamFile
{
    version     2.0;
    format      ascii;
    class       volScalarField;
    location    "0";
    object      moment.0.populationBalance;
}
// * * * * * * * * * * * * * * * * * * * * * * * * * * * * * * * * * * * * * //

dimensions      [0 -3 0 0 0 0 0];


internalField   nonuniform List<scalar> 
100
(
0
6.47572717671351938406587578356266021728515625e-10
3.280527550664213976006067241542041301727294921875e-06
0.000130046859633414779722215826041065156459808349609375
0.00102294595547058886353397610946558415889739990234375
0.003852343975274286069776508156792260706424713134765625
0.00973999141093384590561754521331749856472015380859375
0.01935573499859633006536796528962440788745880126953125
0.032868640183234931750888563328771851956844329833984375
0.05007264645643239031613802580977790057659149169921875
0.070542582218440952335214433333021588623523712158203125
0.093760947178706199878206462017260491847991943359375
0.1192029220221175744853780997800640761852264404296875
0.1463853686816858346020353565108962357044219970703125
0.174890069816865223462087897132732905447483062744140625
0.20437058223121551403522744294605217874050140380859375
0.234549714286897248438634733247454278171062469482421875
0.265212315129402964597460368167958222329616546630859375
0.29619625567183616166033743866137228906154632568359375
0.327383226481418654341126739382161758840084075927734375
0.35869017026835570138842967935488559305667877197265625
0.39006167786869261338011938278214074671268463134765625
0.42146339759139694880474280580529011785984039306640625
0.452876358806125256517560728752869181334972381591796875
0.48429203775245233121182764080003835260868072509765625
0.515707962247547779810474821715615689754486083984375
0.5471236411938746879712880399893037974834442138671875
0.5785366024086029401729547316790558397769927978515625
0.60993832213130716457527569218655116856098175048828125
0.6413098297316441875892678581294603645801544189453125
0.6726167735185815121923269543913193047046661376953125
0.703803744328163727317360098822973668575286865234375
0.734787684870596979891388400574214756488800048828125
0.7654502857131026960502140354947187006473541259765625
0.7956294177687841528978651695069856941699981689453125
0.825109930183134832049063334125094115734100341796875
0.8536146313183141653979646434891037642955780029296875
0.88079707797788231449231943770428188145160675048828125
0.906239052821293800121793537982739508152008056640625
0.9294574177815591031759367979248054325580596923828125
0.9499273535435677207061644367058761417865753173828125
0.967131359816765012737960205413401126861572265625
0.98064426500140366993463203471037559211254119873046875
0.99026000858906615409438245478668250143527984619140625
0.99614765602472576944137472310103476047515869140625
0.99897705404452941113646602389053441584110260009765625
0.999869953140366529709126552916131913661956787109375
0.9999967194724492802748727626749314367771148681640625
0.9999999993524273378397992928512394428253173828125
1
1
0.9999999993524273378397992928512394428253173828125
0.9999967194724492802748727626749314367771148681640625
0.999869953140366529709126552916131913661956787109375
0.99897705404452941113646602389053441584110260009765625
0.99614765602472576944137472310103476047515869140625
0.990260008589066043072079992271028459072113037109375
0.9806442650014037809569344972260296344757080078125
0.9671313598167652347825651304447092115879058837890625
0.9499273535435677207061644367058761417865753173828125
0.9294574177815591031759367979248054325580596923828125
0.9062390528212940221663984630140475928783416748046875
0.8807970779778824255146219002199359238147735595703125
0.8536146313183141653979646434891037642955780029296875
0.8251099301831350540936682591564022004604339599609375
0.79562941776878470800937748208525590598583221435546875
0.7654502857131022519610041854321025311946868896484375
0.7347876848705965358021785505115985870361328125
0.70380374432816361629505763630731962621212005615234375
0.6726167735185824003707466545165516436100006103515625
0.64130982973164474270078017070773057639598846435546875
0.60993832213130705355297322967089712619781494140625
0.57853660240860282915065226916340179741382598876953125
0.5471236411938746879712880399893037974834442138671875
0.5157079622475484459442895968095399439334869384765625
0.48429203775245188712261779073742218315601348876953125
0.452876358806124923450653341205907054245471954345703125
0.421463397591396837782440343289636075496673583984375
0.390061677868693001958178001586929894983768463134765625
0.358690170268355645877278448097058571875095367431640625
0.3273832264814175996292533454834483563899993896484375
0.29619625567183571757112758859875611960887908935546875
0.265212315129403908287031299551017582416534423828125
0.234549714286898025594751970857032574713230133056640625
0.204370582231215625057529905461706221103668212890625
0.174890069816865223462087897132732905447483062744140625
0.1463853686816865007358501316048204898834228515625
0.1192029220221175744853780997800640761852264404296875
0.0937609471787059778336015369859524071216583251953125
0.070542582218440397223702120754751376807689666748046875
0.0500726464564322792938355632941238582134246826171875
0.032868640183234931750888563328771851956844329833984375
0.0193557349985964410876704278052784502506256103515625
0.009739991410933956927920007728971540927886962890625
0.003852343975274397092078970672446303069591522216796875
0.00102294595547058886353397610946558415889739990234375
0.000130046859633414779722215826041065156459808349609375
3.280527550664213976006067241542041301727294921875e-06
6.47572717671351938406587578356266021728515625e-10
0
)
;

boundaryField
{
    left
    {
        type            cyclic;
    }
    right
    {
        type            cyclic;
    }
    frontAndBack
    {
        type            empty;
    }
}


// ************************************************************************* //
