/*--------------------------------*- C++ -*----------------------------------*\
| =========                 |                                                 |
| \\      /  F ield         | OpenFOAM: The Open Source CFD Toolbox           |
|  \\    /   O peration     | Version:  1912                                  |
|   \\  /    A nd           | Website:  www.openfoam.com                      |
|    \\/     M anipulation  |                                                 |
\*---------------------------------------------------------------------------*/
FoamFile
{
    version     2.0;
    format      ascii;
    class       volScalarField;
    location    "0";
    object      moment.5.populationBalance;
}
// * * * * * * * * * * * * * * * * * * * * * * * * * * * * * * * * * * * * * //

dimensions      [0 2 0 0 0 0 0];


internalField   nonuniform List<scalar> 
100
(
0
1.307657683958488243611914163207253850029765374074486317113041878e-10
6.738359182652091589329156583187963036607470712624490261077880859e-07
2.704470336818849866638257706252801426671794615685939788818359375e-05
0.00021441222750754378926878185307458579700323753058910369873046875
0.000810326034747519525179570987205579513101838529109954833984375
0.0020475699910488015693943442130375842680223286151885986328125
0.004050690969112240129301749647083852323703467845916748046875
0.006822150797702180267945148983699255040846765041351318359375
0.0102713603508418523102552200043646735139191150665283203125
0.0142534528867589334322207861305287224240601062774658203125
0.0186024214935446956242781624268900486640632152557373046875
0.023154332530232656084390185924348770640790462493896484375
0.027761243813912948874556008149738772772252559661865234375
0.0322980388213791880236414044702542014420032501220703125
0.036664485326167450818246607013861648738384246826171875
0.040784392392699660156996088744563166983425617218017578125
0.0446032085003296163705499566276557743549346923828125
0.0480849441638495356254878743129665963351726531982421875
0.051208958159282537414558333921377197839319705963134765625
0.053966909542373105168611147064439137466251850128173828125
0.0563600244620037216236596577800810337066650390625
0.058396733054638542970149472921548294834792613983154296875
0.060090677710991129145678968370702932588756084442138671875
0.0614590653291377797540206984194810502231121063232421875
0.06252132297456063081408927928350749425590038299560546875
0.0632980122497988073604346936917863786220550537109375
0.06380995862479794944466249262404744513332843780517578125
0.0640775555954157527427383911344804801046848297119140625
0.0641202084886668133290044124805717729032039642333984375
0.06395588839879877418592712956524337641894817352294921875
0.06360077300401946465147062781397835351526737213134765625
0.06306895817106983326283398127998225390911102294921875
0.0623722329750143467119727347380830906331539154052734375
0.0615199221141212448937807266702293418347835540771484375
0.060518815170634669697857788150940905325114727020263671875
0.059373223591007114052775506252146442420780658721923828125
0.05808523547753648152980332497463678009808063507080078125
0.05665527618724054692567193569630035199224948883056640625
0.055083126981626616414100539032006054185330867767333984375
0.053369594145418301767147539749203133396804332733154296875
0.051519028947125587725164308494640863500535488128662109375
0.049542810237232261239004316166756325401365756988525390625
0.047463582366193642070317793013600748963654041290283203125
0.04531923784006060273998883758395095355808734893798828125
0.043163981836475455444723792197692091576755046844482421875
0.041061447671348727528339850323391146957874298095703125
0.03906558664545072001583747578479233197867870330810546875
0.03720048616595740542667414274546899832785129547119140625
0.03546680108214787796594436031227814964950084686279296875
0.033860574062110355975097064629153464920818805694580078125
0.032377977172566969887856913601353880949318408966064453125
0.0310153799332331704674547978584087104536592960357666015625
0.0297660292394315052766362583724912838079035282135009765625
0.0286091390866154392236264669691081508062779903411865234375
0.0275123227459610798784073182332576834596693515777587890625
0.0264487361581523146292216353003823314793407917022705078125
0.025406129909419046530860697430398431606590747833251953125
0.024385382534841855417528933003268321044743061065673828125
0.023395283148346823764995860983617603778839111328125
0.0224477190756872078958306104823350324295461177825927734375
0.021554476088369571573633010075354832224547863006591796875
0.0207255454120150624242047143752643023617565631866455078125
0.019968478780575997511004260331901605241000652313232421875
0.0192883542220313210224791333757821121253073215484619140625
0.0186880357800291718728402656779508106410503387451171875
0.018168527684941648825400761779746972024440765380859375
0.0177293099348927833680544807748447055928409099578857421875
0.0173685977749980617612646227598816039972007274627685546875
0.0170834998908505515669009611201545340009033679962158203125
0.016870067381135007977821516078620334155857563018798828125
0.0167232341363579006809914062614552676677703857421875
0.0166366536418020745380363933918488328345119953155517578125
0.0166024405237568152549076927471105591394007205963134765625
0.0166108295044364862036445629200898110866546630859375
0.0166497713744494617305047512445526081137359142303466796875
0.0167044962958941382857869228928393567912280559539794921875
0.016757090027730923986748479137531830929219722747802734375
0.0167861488770090494515585533008561469614505767822265625
0.016766603996336552906409878005433711223304271697998046875
0.01666983370237314077133561340815504081547260284423828125
0.0164642109082577016432313854465974145568907260894775390625
0.0161162565636700678972648148601365392096340656280517578125
0.01559258130583775214805797304506995715200901031494140625
0.01486278450704333307930138374786110944114625453948974609375
0.0139034252842752011070093232092403923161327838897705078125
0.01270305920228147200656820814401726238429546356201171875
0.01126811354083080522758830710472466307692229747772216796875
0.00962901005515427559078300845385456341318786144256591796875
0.0078453914120437222290416201531115802936255931854248046875
0.006008541699354442468250514508554260828532278537750244140625
0.004238174139418492310238395504029540461488068103790283203125
0.002669985392786045595714394806918789981864392757415771484375
0.001430581509046715583954867412330713705159723758697509765625
0.000599505906715582024928135052022071249666623771190643310546875
0.00016781412148923196690948611564664361139875836670398712158203125
2.237352600271388640570079109348711199345416389405727386474609375e-05
5.888022368936854471075563813298181514710449846461415290832519531e-07
1.206256282975797610796536404851350514355612375538839842192828655e-10
0
)
;

boundaryField
{
    left
    {
        type            cyclic;
    }
    right
    {
        type            cyclic;
    }
    frontAndBack
    {
        type            empty;
    }
}


// ************************************************************************* //
