/*--------------------------------*- C++ -*----------------------------------*\
| =========                 |                                                 |
| \\      /  F ield         | OpenFOAM: The Open Source CFD Toolbox           |
|  \\    /   O peration     | Version:  1912                                  |
|   \\  /    A nd           | Website:  www.openfoam.com                      |
|    \\/     M anipulation  |                                                 |
\*---------------------------------------------------------------------------*/
FoamFile
{
    version     2.0;
    format      ascii;
    class       volScalarField;
    location    "0";
    object      moment.4.populationBalance;
}
// * * * * * * * * * * * * * * * * * * * * * * * * * * * * * * * * * * * * * //

dimensions      [0 1 0 0 0 0 0];


internalField   nonuniform List<scalar> 
100
(
0
1.651063615301982143570669702881841857389222383289961726404726505e-10
8.496829954438866970285564039766512678397702984511852264404296875e-07
3.4079950739168108036873661159660287012229673564434051513671875e-05
0.00027017979433927919764857339401942226686514914035797119140625
0.0010216757173735391446556253214339449186809360980987548828125
0.002584612247530225503933110076104640029370784759521484375
0.00512191032319637105929555076500037102960050106048583984375
0.00864574209008965414990921516391608747653663158416748046875
0.013052919672542788454006057463629986159503459930419921875
0.018172210009117194251526683501651859842240810394287109375
0.023804708272296658255751111710196710191667079925537109375
0.029752104711756800770050546134370961226522922515869140625
0.035833678428379707459061620511420187540352344512939453125
0.0418947412674572916557735879905521869659423828125
0.04780934031382998161685549121102667413651943206787109375
0.053479480670381322748863084370896103791892528533935546875
0.0588324781346783731716953980139805935323238372802734375
0.063817493887851906020358683235826902091503143310546875
0.068401889144750260829397348061320371925830841064453125
0.07256775490270815642812607393352664075791835784912109375
0.076308790496132650194027746692881919443607330322265625
0.07962759459377168058669127503890194930136203765869140625
0.0825333694544007345772484995904960669577121734619140625
0.085040006269911316838516768257250078022480010986328125
0.0871645044872796648238733041580417193472385406494140625
0.08892567350867341957609824021346867084503173828125
0.0903430664224193213929225976244197227060794830322265625
0.09143609966165090752188149281209916807711124420166015625
0.09222331825574604791118105140412808395922183990478515625
0.0927217730434750364576501624469528906047344207763671875
0.0929464839200514758577043039622367359697818756103515625
0.092909972523285200285414475729339756071567535400390625
0.09262185993953307716619605116648017428815364837646484375
0.09208854190401154216072399094628053717315196990966796875
0.0913129782020534463971017657968332059681415557861328125
0.09029466785573915521556642715950147248804569244384765625
0.08902993071075197828445624281812342815101146697998046875
0.08751268139890831798677339747882797382771968841552734375
0.0857359604470136760223653027424006722867488861083984375
0.08369456342800803139159171450955909676849842071533203125
0.08138913674447333101991119974627508781850337982177734375
0.07883198074626973639311700026155449450016021728515625
0.076054290690180270662068551246193237602710723876953125
0.0731132389424845874348335428294376470148563385009765625
0.07009451723026401126492856974437017925083637237548828125
0.067101859621031767488830155343748629093170166015625
0.0642259296758668496440947137671173550188541412353515625
0.061510240859440130922752842934642103500664234161376953125
0.058960245606667190110261600466401432640850543975830078125
0.0565736353730137142559186713697272352874279022216796875
0.05434807004254608997495523681209306232631206512451171875
0.052281273465578877168713489709261921234428882598876953125
0.050365398912986546198222725934101617895066738128662109375
0.048568396864510775257084418399244896136224269866943359375
0.046837825920897968590139726074994541704654693603515625
0.04513001585428692841173159422396565787494182586669921875
0.04342588928027402150888747200951911509037017822265625
0.041728840071970620118069206228028633631765842437744140625
0.0400559788147460127394339224338182248175144195556640625
0.038429871671528968712916451977434917353093624114990234375
0.03687293793454647639062926600672653876245021820068359375
0.03540440567106693803278716359272948466241359710693359375
0.034039083938611540414154177369709941558539867401123046875
0.0327872189960323467960989773928304202854633331298828125
0.03165489317084056730688956804442568682134151458740234375
0.0306446199354392066760421897697597160004079341888427734375
0.02975593602139471605116938235369161702692508697509765625
0.0289858882028750410031481266059927293099462985992431640625
0.028329370329865648236999930986712570302188396453857421875
0.027779298370860010247707094777069869451224803924560546875
0.027326628158892453390738097596113220788538455963134765625
0.0269602296813057119850842724417816498316824436187744140625
0.0266666380983443147834055508837991510517895221710205078125
0.0264297084835909447397828131443020538426935672760009765625
0.026230210678091260556588082408779882825911045074462890625
0.026045413978193453219400765874524950049817562103271484375
0.02584872931545860452740015489325742237269878387451171875
0.02560949911256026056971535354023217223584651947021484375
0.0252930511976757858849662596867347019724547863006591796875
0.024861160920698684162477576364835840649902820587158203125
0.0242730912089496701777857623483214410953223705291748046875
0.0234873978067964110649779030381978373043239116668701171875
0.02246468742632334869568921931204386055469512939453125
0.02117148681127022091796874292413122020661830902099609375
0.0195853015307775150943836450778690050356090068817138671875
0.0177007869179010256244222176746916375122964382171630859375
0.01553668126396849820392009888792017591185867786407470703125
0.0131427134197489026146143942241906188428401947021484375
0.0106050407047659257797622700536521733738481998443603515625
0.00804787305303636228692720777644353802315890789031982421875
0.005627877089320112817538710459075446124188601970672607421875
0.0035171001011517302216324853958440144197084009647369384765625
0.00187054800713233235730237336014170068665407598018646240234375
0.0007785955015255918709726756787858903408050537109375
0.0002166205201672973608591210581408859070506878197193145751953125
2.87246562204833327043747293050302005212870426476001739501953125e-05
7.523839570273879885016249553786327197713035275228321552276611328e-07
1.53518631685666367470490329293541977712100887742963095661252737e-10
0
)
;

boundaryField
{
    left
    {
        type            cyclic;
    }
    right
    {
        type            cyclic;
    }
    frontAndBack
    {
        type            empty;
    }
}


// ************************************************************************* //
