/*--------------------------------*- C++ -*----------------------------------*\
| =========                 |                                                 |
| \\      /  F ield         | OpenFOAM: The Open Source CFD Toolbox           |
|  \\    /   O peration     | Version:  1912                                  |
|   \\  /    A nd           | Website:  www.openfoam.com                      |
|    \\/     M anipulation  |                                                 |
\*---------------------------------------------------------------------------*/
FoamFile
{
    version     2.0;
    format      ascii;
    class       volScalarField;
    location    "0";
    object      moment.7.populationBalance;
}
// * * * * * * * * * * * * * * * * * * * * * * * * * * * * * * * * * * * * * //

dimensions      [0 4 0 0 0 0 0];


internalField   nonuniform List<scalar> 
100
(
0
8.783959569587552215304275694530934323611681691090780077502131462e-11
4.533488998503972523983272628622653854790769401006400585174560547e-07
1.820396717241141537439730324621223189751617610454559326171875e-05
0.0001442364737956210152779179534121567485271953046321868896484375
0.000544224475508506104481920573334718937985599040985107421875
0.00137156632736725749531492279942312961793504655361175537109375
0.002703654279703084258035250542206995305605232715606689453125
0.0045330401951077757549679603243930614553391933441162109375
0.006788335819884816664526727691963969846256077289581298828125
0.00936186853090985142411550867791447672061622142791748046875
0.012133285820016277700705842335082706995308399200439453125
0.014986030677270160971215062772898818366229534149169921875
0.01781710306520489783821403761976398527622222900390625
0.020541679753790016704773080391532857902348041534423828125
0.023094258351358289138577362109572277404367923736572265625
0.0254276924106491102051119668203682522289454936981201171875
0.027511106134348532747946336485256324522197246551513671875
0.0293273443387601188969693311037190142087638378143310546875
0.0308703605701687137929933868463194812647998332977294921875
0.032142770178695469207585944104721420444548130035400390625
0.033153679916138677208348184421993209980428218841552734375
0.03391683424683077097139261013580835424363613128662109375
0.03444907691285199746733525216768612153828144073486328125
0.034769103897400788216742739678011275827884674072265625
0.034896473513148944245454430301833781413733959197998046875
0.034850836087217861025688847576020634733140468597412109375
0.034651346540058358680624905900913290679454803466796875
0.03431622616125055980074165518090012483298778533935546875
0.033862443953399441742835307422865298576653003692626953125
0.033305492445932914635786659118821262381970882415771484375
0.032659237624401878108404417844212730415165424346923828125
0.031935827582022784099091694542948971502482891082763671875
0.031145649886660568828045114742053556255996227264404296875
0.0302973338580279950849050152328345575369894504547119140625
0.029397801520019757604007537565848906524479389190673828125
0.028452380594861381712945558319916017353534698486328125
0.0274650051464512372223492064904348808340728282928466796875
0.02643854449044240328969834763483959250152111053466796875
0.0253753174768519516868447993829249753616750240325927734375
0.0242778625522246001289250472154890303499996662139892578125
0.023150032268479052433018949841425637714564800262451171875
0.021998437881926326264991899961387389339506626129150390625
0.0208341317809583696785136197604515473358333110809326171875
0.0196740829765823278807435059434283175505697727203369140625
0.018541335568136967093533229444801690988242626190185546875
0.01746182508809850097986071659761364571750164031982421875
0.01645628632007180291996206733529106713831424713134765625
0.0155321919629282552410831641509503242559731006622314453125
0.014687094737792803778031469619236304424703121185302734375
0.01391681235940257256589180911987568833865225315093994140625
0.01321744231281960467450087293173055513761937618255615234375
0.01258538759259262944378843229742415132932364940643310546875
0.0120160137243988975053188283936833613552153110504150390625
0.0114992898806098899078254049754832522012293338775634765625
0.01102084604156521041584682052416610531508922576904296875
0.01056881214066713627064419966927744098939001560211181640625
0.0101372944059055780652300882138661108911037445068359375
0.00972567279912413262810133574021165259182453155517578125
0.00933648499087717277655773528977078967727720737457275390625
0.0089735334021982283980722883143243961967527866363525390625
0.00864065948450002362102306818769648089073598384857177734375
0.0083411175678451444925887159342892118729650974273681640625
0.0080773539414926119606175092258126824162900447845458984375
0.0078510143429062727304934554695137194357812404632568359375
0.00766305518121431113176544869247663882561028003692626953125
0.007513881597127945212444277700569728040136396884918212890625
0.007403469352845306987453977143331940169446170330047607421875
0.007331448457781113321740651400659771752543747425079345703125
0.00729713791914571828500779560044975369237363338470458984375
0.007299526507075819459213761319915647618472576141357421875
0.00733719658658768363046487337442158604972064495086669921875
0.00740818877609528657346427138463695882819592952728271484375
0.00750980580608741864201416404966948903165757656097412109375
0.00763835554859519476333939991263832780532538890838623046875
0.00778883672991484941883211234880945994518697261810302734375
0.007954577257259710931780460896334261633455753326416015625
0.0081268452804562352209671871605678461492061614990234375
0.0082944678274992737765369810176707687787711620330810546875
0.0084435114956511424233465135102960630320012569427490234375
0.00855710394899278185831814624862090568058192729949951171875
0.0086155024008700807625071860229581943713128566741943359375
0.00859654259457302664937383696042161318473517894744873046875
0.0084766232355241270812751253060923772864043712615966796875
0.00823238706847875638394906872008505160920321941375732421875
0.00784323685848406330911597450494809891097247600555419921875
0.007294752424375599599015718155214926810003817081451416015625
0.006582926352339595228724267172992767882533371448516845703125
0.00571887674967442617701696150334100821055471897125244140625
0.004733288718493375464568817534427580540068447589874267578125
0.0036792601397247991744376971468000192544423043727874755859375
0.0026315195748907826804596776781863809446804225444793701171875
0.00167934541488733331260352343861086410470306873321533203125
0.000910524659945937645151581296687481881235726177692413330078125
0.0003856975822473256610041503211760982594569213688373565673828125
0.000109010544693425863080858684295293414834304712712764739990234375
1.465760380218444998889817248999278831433912273496389389038085938e-05
3.88581467642413957937669354361642781725549866678193211555480957e-07
8.009935372891811637542418721364464312406639123764762189239263535e-11
0
)
;

boundaryField
{
    left
    {
        type            cyclic;
    }
    right
    {
        type            cyclic;
    }
    frontAndBack
    {
        type            empty;
    }
}


// ************************************************************************* //
