/*--------------------------------*- C++ -*----------------------------------*\
| =========                 |                                                 |
| \\      /  F ield         | OpenFOAM: The Open Source CFD Toolbox           |
|  \\    /   O peration     | Version:  1912                                  |
|   \\  /    A nd           | Website:  www.openfoam.com                      |
|    \\/     M anipulation  |                                                 |
\*---------------------------------------------------------------------------*/
FoamFile
{
    version     2.0;
    format      ascii;
    class       volScalarField;
    location    "1";
    object      moment.0.populationBalance;
}
// * * * * * * * * * * * * * * * * * * * * * * * * * * * * * * * * * * * * * //

dimensions      [0 -3 0 0 0 0 0];


internalField   nonuniform List<scalar> 
100
(
0.0049550651891559459316649594029513536952435970306396484375
0.0054860783787822921253596319957068772055208683013916015625
0.00662597677077017034596995159745347336865961551666259765625
0.0086014179089178612047650318572777905501425266265869140625
0.01165750293195942643986739994943491183221340179443359375
0.0160555639795305904460320789439720101654529571533203125
0.02207114781697043504049560169733013026416301727294921875
0.02998758998345506243676794611019431613385677337646484375
0.04008558282401718242393684477065107785165309906005859375
0.052628574986536218183186264241157914511859416961669921875
0.067844337933385234773453476009308360517024993896484375
0.0859040565679653200792387224282720126211643218994140625
0.10690117884644374790514831374821369536221027374267578125
0.1308329512792348048311197317161713726818561553955078125
0.1575878534276349551834783824233454652130603790283203125
0.18694180944327098981005974565050564706325531005859375
0.2185650928321376529339659100514836609363555908203125
0.25204059573364501201098164528957568109035491943359375
0.286893395590889166424375389397027902305126190185546875
0.3219291258618193207752256057574413716793060302734375
0.355602124510030648263381181095610372722148895263671875
0.388393931401083580823296870221383869647979736328125
0.420647426356242915002070503760478459298610687255859375
0.452558301055068834539696354113402776420116424560546875
0.48425161682534290097379425787949003279209136962890625
0.51582043292758872343739540156093426048755645751953125
0.5473351372776706913469979554065503180027008056640625
0.5788391125521405999876378700719214975833892822265625
0.6103504428297090722566053955233655869960784912109375
0.64189815817784567908432791227824054658412933349609375
0.67354111383252723843639842016273178160190582275390625
0.7053812157203946942019001653534360229969024658203125
0.7375832782411808619116300178575329482555389404296875
0.7704020288790613957274899803451262414455413818359375
0.8041436099698995310092186628025956451892852783203125
0.83707984565280380007123994801077060401439666748046875
0.8672127298555227792320465596276335418224334716796875
0.89407641785582325777426149215898476541042327880859375
0.9174156793291345923790913730044849216938018798828125
0.93716520437952255395686051997472532093524932861328125
0.95342058443386712429656881795381195843219757080078125
0.96639904780556185048823181205079890787601470947265625
0.97640167889166151748980837510316632688045501708984375
0.9837828232175802600778524720226414501667022705078125
0.98892802549046854299064079896197654306888580322265625
0.99223910643855983693129019229672849178314208984375
0.994123841478714354025214561261236667633056640625
0.99498786593452503979051471105776727199554443359375
0.995227337301097580990472124540247023105621337890625
0.9952085876885004012137869722209870815277099609375
0.99504493481077116445732144711655564606189727783203125
0.99451392162114349293489112824317999184131622314453125
0.99337402322915668850811243828502483665943145751953125
0.99139858209101416885999924488714896142482757568359375
0.98834249706798205092894704648642800748348236083984375
0.983944436020413260024497503763996064662933349609375
0.9779288521829763158876858142320998013019561767578125
0.9700124100164935203594041013275273144245147705078125
0.959914417175932843662167215370573103427886962890625
0.94737142501341231604072845584596507251262664794921875
0.9321556620665620851440280603128485381603240966796875
0.91409594343198019572582779801450669765472412109375
0.893098821153503141800911180325783789157867431640625
0.86916704872071559595525513941538520157337188720703125
0.8424121465723193313834826767561025917530059814453125
0.81305819055667749584159764708601869642734527587890625
0.781434907167804393424148656777106225490570068359375
0.747959404266284710871559582301415503025054931640625
0.71310660440902229328941075436887331306934356689453125
0.67807087413809219444971176926628686487674713134765625
0.6443978754898911365245339766261167824268341064453125
0.61160606859885557895495367120020091533660888671875
0.57935257364371128829816370853222906589508056640625
0.54744169894490324335123432319960556924343109130859375
0.51574838317463200798584921358269639313220977783203125
0.484179567072370475866449623936205171048641204833984375
0.452664862722283067864026406823541037738323211669921875
0.421160887447806941974448591281543485820293426513671875
0.389649557170229920988191452124738134443759918212890625
0.358101841822082989086339921414037235081195831298828125
0.326458886167391881816257637183298356831073760986328125
0.294618784279517209601095828475081361830234527587890625
0.262416721758728488378409338110941462218761444091796875
0.2295979711208503137864767040809965692460536956787109375
0.1958563900300041293878194892386090941727161407470703125
0.1629201543471254509665158138886909000575542449951171875
0.132787270144403724003723255009390413761138916015625
0.10592358214413077899251902636024169623851776123046875
0.0825843206707992105730653520367923192679882049560546875
0.06283479562042477983840882416188833303749561309814453125
0.046579415566096592227207651149001321755349636077880859375
0.033600952194399923145251563028068630956113338470458984375
0.023598321108294025016949291284618084318935871124267578125
0.016217176782356602926515876106350333429872989654541015625
0.011071974509463823610477817283026524819433689117431640625
0.00776089356136312746858862965382286347448825836181640625
0.00587615852120798760893638501556779374368488788604736328125
0.005012134065402074067918647415353916585445404052734375
0.004772662698828693261798861158240470103919506072998046875
0.004791412311427282501308244633264621370472013950347900390625
)
;

boundaryField
{
    left
    {
        type            cyclic;
    }
    right
    {
        type            cyclic;
    }
    frontAndBack
    {
        type            empty;
    }
}


// ************************************************************************* //
