/*--------------------------------*- C++ -*----------------------------------*\
| =========                 |                                                 |
| \\      /  F ield         | OpenFOAM: The Open Source CFD Toolbox           |
|  \\    /   O peration     | Version:  1912                                  |
|   \\  /    A nd           | Website:  www.openfoam.com                      |
|    \\/     M anipulation  |                                                 |
\*---------------------------------------------------------------------------*/
FoamFile
{
    version     2.0;
    format      ascii;
    class       volScalarField;
    location    "1";
    object      moment.3.populationBalance;
}
// * * * * * * * * * * * * * * * * * * * * * * * * * * * * * * * * * * * * * //

dimensions      [0 0 0 0 0 0 0];


internalField   nonuniform List<scalar> 
100
(
0.00160136638932221824459245507199511848739348351955413818359375
0.00182926699961823385591486168522123989532701671123504638671875
0.002239487718799607583741728689119554474018514156341552734375
0.00291781255298605678161205645437803468666970729827880859375
0.0039504066696626448373930173829648992978036403656005859375
0.00542584482435853020232396914934724918566644191741943359375
0.0074365007950261442781769716248163604177534580230712890625
0.0100708976049854702361496805451679392717778682708740234375
0.01340786044942091949361273606200484209693968296051025390625
0.017514743746181608841094856643394450657069683074951171875
0.0224388429645938115852832339669475913979113101959228515625
0.0281993203420925764302040761322132311761379241943359375
0.034779608885433958842536839028980466537177562713623046875
0.042121385869740068930155985071905888617038726806640625
0.05012155386695056613621801488989149220287799835205078125
0.05863337910118708584672475581101025454699993133544921875
0.0674724801676023222540834467508830130100250244140625
0.076427719979406838479718544476781971752643585205078125
0.0852770082140618390642572421711520291864871978759765625
0.0936060646159815601397014006579411216080188751220703125
0.100943535976134757259359275849419645965099334716796875
0.1074347119109137216330651654061512090265750885009765625
0.113189423154983426211828145824256353080272674560546875
0.11828360947524763080451748464838601648807525634765625
0.12278185246839996846990317180825513787567615509033203125
0.1267460434477229724858915460572461597621440887451171875
0.13023457279403072295309584660571999847888946533203125
0.13329773258757160458998214380699209868907928466796875
0.1359749693542002813018143569934181869029998779296875
0.138300250537585267540663380714249797165393829345703125
0.1403035798138903000875643556355498731136322021484375
0.142012423869640247442447389403241686522960662841796875
0.1434559108704113461474349833224550820887088775634765625
0.144671237825865384163392945993109606206417083740234375
0.1456980287070073487587507088392158038914203643798828125
0.146220832510124687519947883629356510937213897705078125
0.145930099739260021873832329220022074878215789794921875
0.144815081557784441912417605635710060596466064453125
0.1429264815582960979067905782358138822019100189208984375
0.140494454334394947014885701719322241842746734619140625
0.137641404432666203394575177298975177109241485595703125
0.134424934678295360246380596436210907995700836181640625
0.130889177534219636189760649358504451811313629150390625
0.1270825640811030776688994592404924333095550537109375
0.123070333661143560544104502696427516639232635498046875
0.11891369036556849458907691996500943787395954132080078125
0.1146518253120951402745930636228877119719982147216796875
0.1104664186559281280342048603415605612099170684814453125
0.1065435292567361857951624415363767184317111968994140625
0.1029253538883479757171102164647891186177730560302734375
0.09957261650637640182370802222067140974104404449462890625
0.0963892351222522536513537261271267198026180267333984375
0.0932854683930448569384452639496885240077972412109375
0.09020215107607254534372032139799557626247406005859375
0.08710551642292874152673221033182926476001739501953125
0.0839506892581425578914178231570986099541187286376953125
0.080698449036463004713226609965204261243343353271484375
0.07754324116096300567591015351354144513607025146484375
0.07463310487610343157971470873235375620424747467041015625
0.07201826857466984976863244583000778220593929290771484375
0.06970853697583752339728135893892613239586353302001953125
0.06767627445745351411066081936951377429068088531494140625
0.06586275626067304711508398895603022538125514984130859375
0.0641883179575339635203334864854696206748485565185546875
0.0625640157049536238531572962529025971889495849609375
0.06090308213892392519284157970105297863483428955078125
0.059131471018096438962974303876762860454618930816650390625
0.0572143830747905701716859994121477939188480377197265625
0.0551575249792538857551704722936847247183322906494140625
0.0530880465393165079657222804598859511315822601318359375
0.051159000457638825754003164547611959278583526611328125
0.04936777459642750776058761630338267423212528228759765625
0.047718455230838875691379286081428290344774723052978515625
0.0462194783352638527418321245932020246982574462890625
0.0448750134834138558748151126565062440931797027587890625
0.0436796866016580243030631436340627260506153106689453125
0.04261638610038893937304038672664319165050983428955078125
0.0416545088635029703283407798153348267078399658203125
0.04074037052656297175357025253106257878243923187255859375
0.039794620177329993737647129137258161790668964385986328125
0.038726150658898762790816050483044818975031375885009765625
0.037430689628794165668690396842066547833383083343505859375
0.0357891397854096238173582378294668160378932952880859375
0.03366331062544052066254351984753157012164592742919921875
0.0308725189002247990543992273160256445407867431640625
0.02742048786696808793106328039357322268187999725341796875
0.0236488821549102057328894943566410802304744720458984375
0.01979614989518944934143718228369834832847118377685546875
0.016076821793535193971802499390832963399589061737060546875
0.01266597713558664274613452249695910722948610782623291015625
0.00968880813185103891005400811309300479479134082794189453125
0.00719752801114580641195228594142463407479226589202880859375
0.00520076234681732425813027731464899261482059955596923828125
0.003676339438326234505816092479335566167719662189483642578125
0.00258304437204585901621811672157491557300090789794921875
0.0018679881567137996030425473037439587642438709735870361328125
0.0014683675308727688578469550151339717558585107326507568359375
0.00131525420148649271369356572591868825838901102542877197265625
0.00133628319099989879836787309841383830644190311431884765625
0.0014544109195855207429526334550473620765842497348785400390625
)
;

boundaryField
{
    left
    {
        type            cyclic;
    }
    right
    {
        type            cyclic;
    }
    frontAndBack
    {
        type            empty;
    }
}


// ************************************************************************* //
