/*--------------------------------*- C++ -*----------------------------------*\
| =========                 |                                                 |
| \\      /  F ield         | OpenFOAM: The Open Source CFD Toolbox           |
|  \\    /   O peration     | Version:  1912                                  |
|   \\  /    A nd           | Website:  www.openfoam.com                      |
|    \\/     M anipulation  |                                                 |
\*---------------------------------------------------------------------------*/
FoamFile
{
    version     2.0;
    format      ascii;
    class       volScalarField;
    location    "1";
    object      moment.2.populationBalance;
}
// * * * * * * * * * * * * * * * * * * * * * * * * * * * * * * * * * * * * * //

dimensions      [0 -1 0 0 0 0 0];


internalField   nonuniform List<scalar> 
100
(
0.002181351076224249778412467293264853651635348796844482421875
0.0024786070009163783771366507124866984668187797069549560546875
0.003029368528028268843510506513894142699427902698516845703125
0.00394864981395868196167864283552262349985539913177490234375
0.00535382602427219612961639683135217637754976749420166015625
0.0073666698165330800340822037242105579935014247894287109375
0.0101144773342047890329897796846125856973230838775634765625
0.01372184492606173984718953562378374044783413410186767578125
0.018303482642357225829154998564263223670423030853271484375
0.02396033703024913474877166663645766675472259521484375
0.030768852772764025693685852047565276734530925750732421875
0.03877033575397524634009727151351398788392543792724609375
0.0479607502056223766739861957830726169049739837646484375
0.05828245394684196389878394484185264445841312408447265625
0.069619573844526827510748034910648129880428314208984375
0.081798498771524175143809998189681209623813629150390625
0.094594407802100655136001705614035017788410186767578125
0.107744000987661070478651481607812456786632537841796875
0.12096426176745732339323780024642474018037319183349609375
0.1336873125261000827546098435050225816667079925537109375
0.1452409193116927788036463198295678012073040008544921875
0.15582027003837717327172640580101870000362396240234375
0.1655667594197781922193968284773291088640689849853515625
0.1745688634174949183108793704377603717148303985595703125
0.182894765693063454659039734906400553882122039794921875
0.190606436899859232880771742202341556549072265625
0.1977604873398985940724514875910244882106781005859375
0.2044033525764532843727039335135486908257007598876953125
0.21056884123216812465528846587403677403926849365234375
0.2162877326601118088689190699369646608829498291015625
0.22159105384951838235707555213593877851963043212890625
0.22651236870363933295635661124833859503269195556640625
0.2310935751437815099951222919116844423115253448486328125
0.2353937846107056752753550199486198835074901580810546875
0.239478544918640567917833550382056273519992828369140625
0.24282226904248982446432592041674070060253143310546875
0.24488346484815493031561572934151627123355865478515625
0.2456030878633735092808620947835152037441730499267578125
0.2450147366276786142780252930606366135179996490478515625
0.243391242822796005640384464641101658344268798828125
0.2408937884879842339369560022532823495566844940185546875
0.237611645004330573893724931622273288667201995849609375
0.233627738175401000741970847229822538793087005615234375
0.2290336308464200054668680195391061715781688690185546875
0.2239433569306308047242026759704458527266979217529296875
0.2184659387576727562763068135609501041471958160400390625
0.21268151894602060902883522430784069001674652099609375
0.2068626794098360477391906897537410259246826171875
0.2012877028229482778698411493678577244281768798828125
0.196044079756068356790166262726415880024433135986328125
0.191096349355450889628826871557976119220256805419921875
0.18631026138650230716820033194380812346935272216796875
0.1815563225020091764339014162032981403172016143798828125
0.1767458291287677674130662808238412253558635711669921875
0.1718229813593635524338054665349773131310939788818359375
0.1667141067049318359227783048481796868145465850830078125
0.1613536857239237232164441593340598046779632568359375
0.156025422964596149899563215512898750603199005126953125
0.15093932933788811734387991236872039735317230224609375
0.1461667929220127337686108148773200809955596923828125
0.1417267386937062501051087792802718468010425567626953125
0.1375823677566575253816694157649180851876735687255859375
0.1336503775322419873550217062074807472527027130126953125
0.129817048791841027632898430965724401175975799560546875
0.12595710441908758436824200543924234807491302490234375
0.12195189881799807507523070171373547054827213287353515625
0.1177052668120079637059660626619006507098674774169921875
0.113193121079996128486300221993587911128997802734375
0.1084831900261788717454436437037657015025615692138671875
0.103815640724122193461198548902757465839385986328125
0.099470410516445451065692395786754786968231201171875
0.0954158046385857050442069748896756209433078765869140625
0.09163184657498073260040172272056224755942821502685546875
0.0881079429101389310918790442883619107306003570556640625
0.08482816025883843646937521043582819402217864990234375
0.081762843816960806275773165907594375312328338623046875
0.07886590344679021702400945059707737527787685394287109375
0.076074559282495235468246619348064996302127838134765625
0.0733036086514136375757999530833330936729907989501953125
0.0704426068462512822154764080551103688776493072509765625
0.06736707581542555889342338559799827635288238525390625
0.06393795339883949491177617119319620542228221893310546875
0.059999340932677037996345603687586844898760318756103515625
0.0553720482290373794409532592908362857997417449951171875
0.049828752201921899800396431601257063448429107666015625
0.043511666337255346104218034497534972615540027618408203125
0.036994377490729417334858197818903136067092418670654296875
0.0306062591269127270976468935259617865085601806640625
0.0246220270199850078951531173743205727078020572662353515625
0.019249396648011680988066274267112021334469318389892578125
0.0146220404758599549499553660325545934028923511505126953125
0.0107900429088016551470996517991807195357978343963623046875
0.0077456824822397553342856468816535198129713535308837890625
0.00543952652972168326783730663009919226169586181640625
0.0037963040454770820807117726047863470739684998989105224609375
0.00272521954166160020049947121378863812424242496490478515625
0.0021231528968430114258370000612785588600672781467437744140625
0.0018795913720722422744768831393002983531914651393890380859375
0.00188017147364504693708708860100387028069235384464263916015625
0.002007269726383784612389060697523746057413518428802490234375
)
;

boundaryField
{
    left
    {
        type            cyclic;
    }
    right
    {
        type            cyclic;
    }
    frontAndBack
    {
        type            empty;
    }
}


// ************************************************************************* //
