/*--------------------------------*- C++ -*----------------------------------*\
| =========                 |                                                 |
| \\      /  F ield         | OpenFOAM: The Open Source CFD Toolbox           |
|  \\    /   O peration     | Version:  1912                                  |
|   \\  /    A nd           | Website:  www.openfoam.com                      |
|    \\/     M anipulation  |                                                 |
\*---------------------------------------------------------------------------*/
FoamFile
{
    version     2.0;
    format      ascii;
    class       volScalarField;
    location    "1";
    object      moment.4.populationBalance;
}
// * * * * * * * * * * * * * * * * * * * * * * * * * * * * * * * * * * * * * //

dimensions      [0 1 0 0 0 0 0];


internalField   nonuniform List<scalar> 
100
(
0.00122585441565504181526957694359225570224225521087646484375
0.001405278060670867891490676271359916427172720432281494140625
0.00172153142618133685182169045901900972239673137664794921875
0.002240615669443092594637079173480742610991001129150390625
0.0030277853467640613270572824688997570774517953395843505859375
0.00414948123304033182623395958898981916718184947967529296875
0.00567480650785911165667751987484734854660928249359130859375
0.00766868460676673781295509257915909984149038791656494140625
0.01018714142534858646538253879043622873723506927490234375
0.0132767574233333129907208558506681583821773529052734375
0.0169675995540523767701746038483179290778934955596923828125
0.021266927415814880497624272948087309487164020538330078125
0.026153383574210105344537424798545544035732746124267578125
0.031572397060977065719189482706497074104845523834228515625
0.03743412710118744490817022096962318755686283111572265625
0.043614865052706175418961720424704253673553466796875
0.049962441891994925635689384080251329578459262847900390625
0.056305627926721231457651839491518330760300159454345703125
0.06246766507276328705966506049662712030112743377685546875
0.06813776567619404811448902137271943502128124237060546875
0.07297530444098439261768618280257214792072772979736328125
0.077095127148385123039275867995456792414188385009765625
0.08058794190326430684212510868746903724968433380126953125
0.0835218650442381693732585290490533225238323211669921875
0.0859583915026420342098134597108582966029644012451171875
0.0879576984483183277330198279742035083472728729248046875
0.08957697169494560629487978076213039457798004150390625
0.090866183592894278486795656135655008256435394287109375
0.0918654424503755062669796416230383329093456268310546875
0.0926081496676592064165589590629679150879383087158203125
0.09312180479348365624847616572878905571997165679931640625
0.09342916383061912466434506541190785355865955352783203125
0.09355160571577335326676205795592977665364742279052734375
0.0935141070521989803410178865306079387664794921875
0.093342398664291670318249316551373340189456939697265625
0.09283747025157673693485094190691597759723663330078125
0.091812780969547425069521295881713740527629852294921875
0.09027585725264908322884593872004188597202301025390625
0.0882756070163814021700687817428843118250370025634765625
0.08599056250396221179332911788151250220835208892822265625
0.083509789247958099434043788278358988463878631591796875
0.0808726708139713978962248575044213794171810150146484375
0.0781017964791395347123881265360978431999683380126953125
0.07522188716100879080084240513315307907760143280029296875
0.07227025724683178165008712312555871903896331787109375
0.069281721828645392857737306258059106767177581787109375
0.0662751912196503367713518173331976868212223052978515625
0.063369226234616882198480425358866341412067413330078125
0.060688801028836218687256831572085502557456493377685546875
0.05825531320098205345647812691822764463722705841064453125
0.056033992757704209619618040960631333291530609130859375
0.05395566002544922856731801630303380079567432403564453125
0.05195691157231409340599981305786059238016605377197265625
0.0499964652988353908114049772848375141620635986328125
0.04805185500734925063692770663692499510943889617919921875
0.046094130689970501391083956832517287693917751312255859375
0.0440976817785861674448000258053070865571498870849609375
0.04218788125179569192813033851052750833332538604736328125
0.040467627623608837250657188633340410888195037841796875
0.038972884317640850426744947299084742553532123565673828125
0.037708587659050489537815309404322761110961437225341796875
0.036655917085800675259132930250416393391788005828857421875
0.0357755283057503703503243741579353809356689453125
0.03501382784695572514266359576140530407428741455078125
0.034310324333306108091079522637301124632358551025390625
0.03360486942867767223841468648970476351678371429443359375
0.03284453788700654464083328321066801436245441436767578125
0.031996063307978848955226425232467590831220149993896484375
0.0310432121277783266977134957187445252202451229095458984375
0.0300588204606706786703451683706589392386376857757568359375
0.02913451200203746871419951958159799687564373016357421875
0.0282763715392106464163735068950700224377214908599853515625
0.0274951824826112634081454189072246663272380828857421875
0.026804457642092514857434792929780087433755397796630859375
0.02621497397342746615844788493632222525775432586669921875
0.0257312896371266162931501497723729698918759822845458984375
0.0253501222632947602331210390502747031860053539276123046875
0.025058223074167142174761835349272587336599826812744140625
0.0248223065925487727800824444557292736135423183441162109375
0.02458644547784909206722403496314655058085918426513671875
0.02428490536714873748724841107105021364986896514892578125
0.0238402047397435097597639952482495573349297046661376953125
0.02316153507811984091357970783064956776797771453857421875
0.0221414977956166103556512325667426921427249908447265625
0.0206359887836744249067777445816318504512310028076171875
0.0185967781009373327172351508806968922726809978485107421875
0.01623369977934940866504121004254557192325592041015625
0.01372118078968648409443620295178334345109760761260986328125
0.0112275015496006748405566355586415738798677921295166015625
0.0088978894255957625969433166801536572165787220001220703125
0.00684319886810275980482121127579375752247869968414306640625
0.00511009443981343992879917692562230513431131839752197265625
0.0037114874841469081868938761914478163816966116428375244140625
0.0026371868615474186071934159514285056502558290958404541015625
0.00186278105096505529510164667073013333720155060291290283203125
0.0013550157487232411708533152960853840340860188007354736328125
0.0010727433027422593470046052743782638572156429290771484375
0.00096991581755351036382706286786969940294511616230010986328125
0.00099772325926375852143956901585397645249031484127044677734375
0.001102706511109969624018223299799501546658575534820556640625
)
;

boundaryField
{
    left
    {
        type            cyclic;
    }
    right
    {
        type            cyclic;
    }
    frontAndBack
    {
        type            empty;
    }
}


// ************************************************************************* //
