/*--------------------------------*- C++ -*----------------------------------*\
| =========                 |                                                 |
| \\      /  F ield         | OpenFOAM: The Open Source CFD Toolbox           |
|  \\    /   O peration     | Version:  1912                                  |
|   \\  /    A nd           | Website:  www.openfoam.com                      |
|    \\/     M anipulation  |                                                 |
\*---------------------------------------------------------------------------*/
FoamFile
{
    version     2.0;
    format      ascii;
    class       volScalarField;
    location    "1";
    object      moment.5.populationBalance;
}
// * * * * * * * * * * * * * * * * * * * * * * * * * * * * * * * * * * * * * //

dimensions      [0 2 0 0 0 0 0];


internalField   nonuniform List<scalar> 
100
(
0.0009687225353270955720275114941841820836998522281646728515625
0.0011134206215070072652773003341053481562994420528411865234375
0.0013641156618672376117651356963733633165247738361358642578125
0.00177300315679191733235497974163763501564972102642059326171875
0.0023907802764727508447462067664446294656954705715179443359375
0.00326853213168286360623682185178040526807308197021484375
0.004459204108759985858700947147781334933824837207794189453125
0.0060116001545424714580523328777417191304266452789306640625
0.0079666024836021580302070077550524729304015636444091796875
0.01035735514191325756794270773752941749989986419677734375
0.01320331029052403994106246187811848358251154422760009765625
0.016505223365590050710327574279290274716913700103759765625
0.0202406199325514159215178011663738288916647434234619140625
0.02436014851437658113031403672721353359520435333251953125
0.02878611567005733007373891041424940340220928192138671875
0.033413953158243504815150259901201934553682804107666015625
0.038117056122254862338127878729210351593792438507080078125
0.04275494926225799352526024676990346051752567291259765625
0.047185003366579651717938048705036635510623455047607421875
0.05116856467616159864775227106292732059955596923828125
0.054453219518442612379072187422934803180396556854248046875
0.05713339879353014627572093786511686630547046661376953125
0.05928664836393289505611647882687975652515888214111328125
0.06097487571936006933714935485113528557121753692626953125
0.0622559145585902806718792135143303312361240386962890625
0.063186692636917174414890041589387692511081695556640625
0.063821157313582954628827792475931346416473388671875
0.0642064904011043768861100033973343670368194580078125
0.06438071568784616005576282304900814779102802276611328125
0.06437466256206214598734050014172680675983428955078125
0.0642125016228012601704477901876089163124561309814453125
0.063912827835201857507030354099697433412075042724609375
0.063491509519904842928639254751033149659633636474609375
0.06296571918433212233789930678540258668363094329833984375
0.062352647744791149519993922467619995586574077606201171875
0.0615210634194306715816225050730281509459018707275390625
0.0603531966284651388843229824487934820353984832763671875
0.058862341890736524785410210824920795857906341552734375
0.057090181009439133763549989453167654573917388916015625
0.05517117708613973603437585779829532839357852935791015625
0.0531695563951384286838219850324094295501708984375
0.05111373500798806202016777433527749963104724884033203125
0.049014337397655337313917556230080663226544857025146484375
0.046882911026052465075508735026232898235321044921875
0.044740525921952122023750320067847496829926967620849609375
0.042607028767897958676513781028916127979755401611328125
0.0404909301603727234120100320069468580186367034912109375
0.038469530221639118561238745996888610534369945526123046875
0.0366283745665283710923887383614783175289630889892578125
0.03497914157474217577981079330129432491958141326904296875
0.033493251636070808796574738153140060603618621826171875
0.03212025798169813872728894921237952075898647308349609375
0.030814433332950898203339562542169005610048770904541015625
0.029546034425975309378742394983419217169284820556640625
0.0282992460768636266976727711153216660022735595703125
0.02705463734041362033888589166963356547057628631591796875
0.025794580489627183528256182398763485252857208251953125
0.0245992928505668652372495586178047233261168003082275390625
0.023541402155650113792173527826889767311513423919677734375
0.022647627783764674724853449561123852618038654327392578125
0.0219207468757322103403151203337984043173491954803466796875
0.021348692541971199532202518867052276618778705596923828125
0.020905473677179854663510383261382230557501316070556640625
0.020555086067356280465912021782060037367045879364013671875
0.020256378126144593265767213097205967642366886138916015625
0.0199677449667031957358798166524138650856912136077880859375
0.019651625403843596406883165172985172830522060394287109375
0.0192786589219320521337852625265441020019352436065673828125
0.018826347972039948752698279577089124359190464019775390625
0.0183389871230662214462991954633253044448792934417724609375
0.0178750791884435440703970954245960456319153308868408203125
0.017442700954554433978582750341956852935254573822021484375
0.0170535663585401897623938793913112021982669830322265625
0.016721445821343737525577211044947034679353237152099609375
0.016458498477803000514807507670411723665893077850341796875
0.0162728976997439343799012334557119174860417842864990234375
0.016167680418850631507421411470204475335776805877685546875
0.0161386387652204220388707511801840155385434627532958984375
0.0161650510657417832705018412298159091733396053314208984375
0.0162072892509866062216161708420258946716785430908203125
0.016217611169304778362398877789019024930894374847412109375
0.016137983070468660262708482378002372570335865020751953125
0.01589848999369465609721174814694677479565143585205078125
0.01541459414999485875996665384946027188561856746673583984375
0.0145702224083952246169726407742928131483495235443115234375
0.013299360356565544105666987206859630532562732696533203125
0.0117325444989604364687263426958452328108251094818115234375
0.0099992320389282081383175437849786248989403247833251953125
0.00823334637571461296079444736051300424151122570037841796875
0.00655590501843608501608695604545573587529361248016357421875
0.00506385197381713052233731531259763869456946849822998046875
0.0037973388257456380280585594988451703102327883243560791015625
0.0027696359381305948009488471228678463376127183437347412109375
0.0019763007330149766870019956144233219674788415431976318359375
0.0014020503341410869325989185796288438723422586917877197265625
0.001024789759165946161079130405369141953997313976287841796875
0.0008160832756596955901706724745281462674029171466827392578125
0.000743578399607725871491015201542040813365019857883453369140625
0.000772764589175738039576735172175858679111115634441375732421875
0.00086492043592630951480415557597325459937565028667449951171875
)
;

boundaryField
{
    left
    {
        type            cyclic;
    }
    right
    {
        type            cyclic;
    }
    frontAndBack
    {
        type            empty;
    }
}


// ************************************************************************* //
