/*--------------------------------*- C++ -*----------------------------------*\
| =========                 |                                                 |
| \\      /  F ield         | OpenFOAM: The Open Source CFD Toolbox           |
|  \\    /   O peration     | Version:  1912                                  |
|   \\  /    A nd           | Website:  www.openfoam.com                      |
|    \\/     M anipulation  |                                                 |
\*---------------------------------------------------------------------------*/
FoamFile
{
    version     2.0;
    format      ascii;
    class       volScalarField;
    location    "1";
    object      moment.1.populationBalance;
}
// * * * * * * * * * * * * * * * * * * * * * * * * * * * * * * * * * * * * * //

dimensions      [0 -2 0 0 0 0 0];


internalField   nonuniform List<scalar> 
100
(
0.00314853522423080324499355953093981952406466007232666015625
0.00354580095421837444835677644050520029850304126739501953125
0.0043177478356869504472204113199040875770151615142822265625
0.00562367802778058860357912607241814839653670787811279296875
0.00762963842271188914800905678248454933054745197296142578125
0.0105096932211625505859675655528917559422552585601806640625
0.01444632854954717993134494236073805950582027435302734375
0.01962234081548197561772894914611242711544036865234375
0.026212108331296224417172879839199595153331756591796875
0.034373971637436114001662446071350132115185260772705078125
0.044236367618160805925686673845120822079479694366455078125
0.055883298685893374735389471652524662204086780548095703125
0.06934008257535638486412921110968454740941524505615234375
0.08456139708597608384277322102207108400762081146240234375
0.101423867440635973036222594600985758006572723388671875
0.1197251765183635907607850867861998267471790313720703125
0.139190978535430220919266730561503209173679351806640625
0.1594899733778792072502739074479904957115650177001953125
0.18025682655318175928726986967376433312892913818359375
0.20068590149496590147037977658328600227832794189453125
0.2197820344021594873851199736236594617366790771484375
0.23783233294399497292914702484267763793468475341796875
0.255039228766045400487172400971758179366588592529296875
0.271518899848031625143818246215232647955417633056640625
0.28735010097021096431291198314283974468708038330078125
0.30259721137616912844947592020616866648197174072265625
0.31731412865239450038501445305882953107357025146484375
0.33153952118203633414594833084265701472759246826171875
0.3452955307766958359394493527361191809177398681640625
0.3586058526362891907268704017042182385921478271484375
0.37150336789707016915684789637452922761440277099609375
0.384035079153518754679907942772842943668365478515625
0.39627161596828475165210647901403717696666717529296875
0.40832119907013997295308627144549973309040069580078125
0.420309226012404224537277741546859033405780792236328125
0.431310013894199872908075121813453733921051025390625
0.4403177015826453821745189998182468116283416748046875
0.447153206360779875705446784195373766124248504638671875
0.45177800906712917150542807576130144298076629638671875
0.45443589866494382700778942307806573808193206787109375
0.4553098551837744256687301458441652357578277587890625
0.45454282166265025377782649229629896581172943115234375
0.452289377692530025765194068299024365842342376708984375
0.44872301158168392820613235016935504972934722900390625
0.4440459983347657679786379958386532962322235107421875
0.4384583708397762347175330432946793735027313232421875
0.43212964887663130042483317083679139614105224609375
0.425438698531336034758254527332610450685024261474609375
0.41877986672227063280615766416303813457489013671875
0.412337996569088927056867532883188687264919281005859375
0.40610928157467307553218915927573107182979583740234375
0.39990921497683762364516724119312129914760589599609375
0.39355010299975778931269587701535783708095550537109375
0.38689056287501444320042764957179315388202667236328125
0.37982298784879786612833640901953913271427154541015625
0.3722150771519616707649902309640310704708099365234375
0.3639411672558494625917546727578155696392059326171875
0.3553096789467515836946631679893471300601959228515625
0.346558900684952486681567052073660306632518768310546875
0.33776806375113876956817193786264397203922271728515625
0.3289573359211706016225207349634729325771331787109375
0.32008089285888574604399536838172934949398040771484375
0.31103820671748960702274189316085539758205413818359375
0.301696593850435734740500492989667691290378570556640625
0.29191851034422378052823887628619559109210968017578125
0.281587378758945072743102855383767746388912200927734375
0.27062833041925393740001482001389376819133758544921875
0.25908799077330157967224977255682460963726043701171875
0.2471914365943501945555027532464009709656238555908203125
0.235441726060243772256086458583013154566287994384765625
0.2244260632488397633199639358281274326145648956298828125
0.214016425367185070260944712572381831705570220947265625
0.2041148741115226539211136014273506589233875274658203125
0.194653206600593542408006442201440222561359405517578125
0.1855641460645423290731770293859881348907947540283203125
0.176766569203135770482759880906087346374988555908203125
0.168162573120122893488570525732939131557941436767578125
0.1596415846706657759579428557117353193461894989013671875
0.15108454180370245456543898399104364216327667236328125
0.1423561998013605223167843405462917871773242950439453125
0.1333036190705419177238155725717660970985889434814453125
0.1237558258384720277778257013778784312307834625244140625
0.11351867349057355449648554213126772083342075347900390625
0.102363077633957633150174615366267971694469451904296875
0.090008583479767645396663056089892052114009857177734375
0.07697937501580127961364752309236791916191577911376953125
0.064293426542956499947223392155137844383716583251953125
0.052395942871098118154282730074555729515850543975830078125
0.04162258685417803694139848857957986183464527130126953125
0.032194316017975850574561746952895191498100757598876953125
0.0242199883882637766185919048211871995590627193450927734375
0.0177110445356876942957224940755622810684144496917724609375
0.01260211696337554254654378382838331162929534912109375
0.0087725975997612372359046872816179529763758182525634765625
0.006067857807065340190744162640612557879649102687835693359375
0.004313487888994904130568475153495455742813646793365478515625
0.0033211630155176551093543224624227150343358516693115234375
0.00289519004503550371476539027071339660324156284332275390625
0.00283747577886994152562838422682034433819353580474853515625
0.00295313658213247447192895123180278460495173931121826171875
)
;

boundaryField
{
    left
    {
        type            cyclic;
    }
    right
    {
        type            cyclic;
    }
    frontAndBack
    {
        type            empty;
    }
}


// ************************************************************************* //
