/*--------------------------------*- C++ -*----------------------------------*\
| =========                 |                                                 |
| \\      /  F ield         | OpenFOAM: The Open Source CFD Toolbox           |
|  \\    /   O peration     | Version:  1912                                  |
|   \\  /    A nd           | Website:  www.openfoam.com                      |
|    \\/     M anipulation  |                                                 |
\*---------------------------------------------------------------------------*/
FoamFile
{
    version     2.0;
    format      ascii;
    class       volScalarField;
    location    "1";
    object      moment.6.populationBalance;
}
// * * * * * * * * * * * * * * * * * * * * * * * * * * * * * * * * * * * * * //

dimensions      [0 3 0 0 0 0 0];


internalField   nonuniform List<scalar> 
100
(
0.00078491549817352214424293066485915915109217166900634765625
0.00090405863060456954916066507621508208103477954864501953125
0.0011073794624918103894628540473377142916433513164520263671875
0.0014371379680384621137234635313006947399117052555084228515625
0.00193356471386145587106064613891476255957968533039093017578125
0.0026367409956665650849760851315295440144836902618408203125
0.0035880151585134614257432961181848440901376307010650634765625
0.004824789726341226214767488045254140160977840423583984375
0.006377513428680166469864065703632149961777031421661376953125
0.0082703088922094526724837493247832753695547580718994140625
0.0105158672371043447613114807381862192414700984954833984375
0.01311140687681429210786898664764521527104079723358154296875
0.016035079980976585378726895214640535414218902587890625
0.019242973720628504807894643136023660190403461456298828125
0.022668012854715903492408557440285221673548221588134765625
0.0262213922481117529816874167636342463083565235137939453125
0.02979688227449274473546125818756991066038608551025390625
0.0332779631914716100826723277350538410246372222900390625
0.0365480529984586188785300464587635360658168792724609375
0.0394202067102735753678643959574401378631591796875
0.04170334159469914203643980954439030028879642486572265625
0.0434771658601265376109523685954627580940723419189453125
0.044809306566968298835007544766995124518871307373046875
0.045756172603884613658831170823759748600423336029052734375
0.046371482676126805910765682483543059788644313812255859375
0.0467080572961070250581627760766423307359218597412109375
0.046815607079331446327419286035365075804293155670166015625
0.04673738820722077302871610982037964276969432830810546875
0.046508117372588010651757173263831646181643009185791015625
0.046155273304931097866354861025683931075036525726318359375
0.04569954762225918176721251029448467306792736053466796875
0.04515590668023362896921213405221351422369480133056640625
0.04453607007594284628027025974006392061710357666015625
0.04385186311063338227000940605648793280124664306640625
0.043114809309701206119225247448412119410932064056396484375
0.04223490794705782314100162011527572758495807647705078125
0.04113465628670055773685731992372893728315830230712890625
0.039828015025653529246341122416197322309017181396484375
0.03834880499613006754611177484548534266650676727294921875
0.03679744241400161042232497266013524495065212249755859375
0.035220421442164175085398625242305570282042026519775390625
0.0336390791823304724506016327723045833408832550048828125
0.0320574932825387903800873345971922390162944793701171875
0.03047992343816631477526613025474944151937961578369140625
0.028917877548190758230095553926730644889175891876220703125
0.027382535169600395741351661627049907110631465911865234375
0.02587700205884095605579631182990851812064647674560546875
0.0244520279608314849983941030586720444262027740478515625
0.0231674022054297427952729293565425905399024486541748046875
0.02203013958862103105484919751688721589744091033935546875
0.021017421280718075193849614379359991289675235748291015625
0.020091918563132894759437618859010399319231510162353515625
0.0192200054339516646084717876874492503702640533447265625
0.018379720397601086168126727216076687909662723541259765625
0.0175595176982750074412553686897808802314102649688720703125
0.016745953956786137351020471442097914405167102813720703125
0.015926474871398053900772850965950055979192256927490234375
0.0151529043117427271447628100986548815853893756866455078125
0.0144773812255336829790675068352356902323663234710693359375
0.01392035707662936903916683917259433655999600887298583984375
0.01348377175856537747711261232552715227939188480377197265625
0.01316024775766163300294575577709110802970826625823974609375
0.01293263849992000620592325077495843288488686084747314453125
0.01277650707198361990091228790333843789994716644287109375
0.01266351533004108319280245353866121149621903896331787109375
0.0125645544193331119842138576814249972812831401824951171875
0.0124526890409435257722758905174487153999507427215576171875
0.01230257475508242555328752843024631147272884845733642578125
0.012091441111783542139423985872781486250460147857666015625
0.01184748307005103508393606404069942072965204715728759765625
0.01160990569645226587469633017235537408851087093353271484375
0.01138654318304970457231828362409942201338708400726318359375
0.0111881857785283179984592294431422487832605838775634765625
0.011027319179993937126038616725054453127086162567138671875
0.0109155552637860420173154807343962602317333221435546875
0.01086197094986034346331127409257533145137131214141845703125
0.0108723093078625099305867252041934989392757415771484375
0.010947017801062934594380493535936693660914897918701171875
0.0110731411658045487966806064150659949518740177154541015625
0.011222275640516622685627368127825320698320865631103515625
0.01135933069759559495282008612093704869039356708526611328125
0.01144030233809527168087338822033416363410651683807373046875
0.011410685041238995129919686633002129383385181427001953125
0.01120304190499023244687037959010922349989414215087890625
0.0107228027971428448161805846439165179617702960968017578125
0.00990041675291158072835795422861338010989129543304443359375
0.00881678171398785938406295059621697873808443546295166015625
0.007569201902882279585360603135768542415462434291839599609375
0.006265933914858939045300356696088783792220056056976318359375
0.00500881970712596484573975175180748919956386089324951171875
0.003882688351395414093347735473571447073481976985931396484375
0.0029218352546678057375661996530880060163326561450958251953125
0.0021386032049554473503938378797784025664441287517547607421875
0.001531465276524374662103777922084191231988370418548583984375
0.0010904597328408459529225371653637921554036438465118408203125
0.000800283346219475663803344378521842372720129787921905517578125
0.00064046993850179023514967990848845147411338984966278076171875
0.000587395012000658926255847180897262660437263548374176025390625
0.00061575863468166908663847802785085150389932096004486083984375
0.00069656656283672712011434402512577435118146240711212158203125
)
;

boundaryField
{
    left
    {
        type            cyclic;
    }
    right
    {
        type            cyclic;
    }
    frontAndBack
    {
        type            empty;
    }
}


// ************************************************************************* //
