/*--------------------------------*- C++ -*----------------------------------*\
| =========                 |                                                 |
| \\      /  F ield         | OpenFOAM: The Open Source CFD Toolbox           |
|  \\    /   O peration     | Version:  1912                                  |
|   \\  /    A nd           | Website:  www.openfoam.com                      |
|    \\/     M anipulation  |                                                 |
\*---------------------------------------------------------------------------*/
FoamFile
{
    version     2.0;
    format      ascii;
    class       volScalarField;
    location    "1";
    object      moment.7.populationBalance;
}
// * * * * * * * * * * * * * * * * * * * * * * * * * * * * * * * * * * * * * //

dimensions      [0 4 0 0 0 0 0];


internalField   nonuniform List<scalar> 
100
(
0.000648770017585205871664399968068437374313361942768096923828125
0.00074862904232294615047837993415669188834726810455322265625
0.000916677830061669537443924671293871142552234232425689697265625
0.00118781824943166151344053904637121377163566648960113525390625
0.0015945666270402738227962569084183996892534196376800537109375
0.002168942419421331091466953466806444339454174041748046875
0.002943762870135175659103143885886311181820929050445556640625
0.003948138220484137365928756224775497685186564922332763671875
0.005205098872726264536137108507318771444261074066162109375
0.0067324989519279843097621096603688783943653106689453125
0.00853858505620869699670461017149136750958859920501708984375
0.01061869793346155443902745219020289368927478790283203125
0.01295238872131549388855287219257661490701138973236083984375
0.0155008748180799384164263443608433590270578861236572265625
0.018206172184690679050067529942680266685783863067626953125
0.020992447467217074941192578307891380973160266876220703125
0.023769836497933537200477616124771884642541408538818359375
0.02644070731529468698539631077437661588191986083984375
0.028908647773984837148208981716379639692604541778564453125
0.0310247042395193350916571262132492847740650177001953125
0.0326415649315679179398586029492435045540332794189453125
0.0338277242839701564047771853438462130725383758544921875
0.0346428756263187642705503321849391795694828033447265625
0.035138392149869281111396190908635617233812808990478515625
0.035363711625045535225098092269035987555980682373046875
0.035367233069697412428666893902118317782878875732421875
0.035194114988207514382878571268520317971706390380859375
0.0348833454363107475781902167000225745141506195068359375
0.034465961812575544864767351782575133256614208221435546875
0.03396597709266881148781891397447907365858554840087890625
0.033400820166075824435569785464394954033195972442626953125
0.0327823833922789853456691844257875345647335052490234375
0.03211921011807035430951628995899227447807788848876953125
0.03141933055837220489792116495664231479167938232421875
0.0306903498217629133737460733755142427980899810791015625
0.0298683851218433070451307997927870019339025020599365234375
0.0289005239912491600218213960715729626826941967010498046875
0.027799463377549481213346638242001063190400600433349609375
0.026592064802180515048490860863239504396915435791015625
0.025353373718552681126414682921677012927830219268798828125
0.0241173361181400702779598077540867961943149566650390625
0.02290038495735473300651818817641469649970531463623046875
0.0217031108205713307857109839460463263094425201416015625
0.0205258084235992420418792647751615731976926326751708984375
0.019374314164981844277324540826157317496836185455322265625
0.018254717883998294869485334857017733156681060791015625
0.01716734625068212782839083274666336365044116973876953125
0.01614585339658057561162962656453601084649562835693359375
0.015232830881720109406085583714229869656264781951904296875
0.014432956008453061425012009522106382064521312713623046875
0.0137282025617927218308356174247819581069052219390869140625
0.01309055161731049847506636041316596674732863903045654296875
0.01249484970966081333332287073289990075863897800445556640625
0.0119245683006641532697411633989759138785302639007568359375
0.01137105750377043721088821115472455858252942562103271484375
0.0108247749283290166377735630476308870129287242889404296875
0.01027655003364652715192040233205261756666004657745361328125
0.00976038463270301366592196501414946396835148334503173828125
0.009314230923057505162621083627527696080505847930908203125
0.0089540636937735472444810369552214979194104671478271484375
0.008681546748135933466716807060947758145630359649658203125
0.00849240093912746567272886721866598236374557018280029296875
0.0083752879528869901559762212173154694028198719024658203125
0.00831341702869883326931788047886584536172449588775634765625
0.00828699892299985217680724502997691160999238491058349609375
0.008275390323392604885466283803907572291791439056396484375
0.008259007622374713031287996045648469589650630950927734375
0.0082161851707838982894482882102238363586366176605224609375
0.0081260845398146326623578517001078580506145954132080078125
0.00800726674389704191903138763564129476435482501983642578125
0.007886959964195382200013995088738738559186458587646484375
0.007772065999864795869667144501136135659180581569671630859375
0.007671948586746968334892926577595062553882598876953125
0.00759741971973330702805338177086014184169471263885498046875
0.0075588884330404330913477650710774469189345836639404296875
0.00756516832142771315783402741317331674508750438690185546875
0.00762294280225124347427634319274147856049239635467529296875
0.00773498026758275523950825203201020485721528530120849609375
0.00789321345823517338258223929869927815161645412445068359375
0.008077054893475633934318835827070870436728000640869140625
0.008260407248413044467572063922489178366959095001220703125
0.0084094994235131663440352411953426781110465526580810546875
0.00848132906043228516901333335908930166624486446380615234375
0.008421449865745632423763566976049332879483699798583984375
0.0081519753516506830715027120959348394535481929779052734375
0.00760576927101729027835830265757977031171321868896484375
0.006831679860311167147568500723764373105950653553009033203125
0.0059035223631738360794418696286811609752476215362548828125
0.004910052724765030796039155802645836956799030303955078125
0.00393789270718834794049456604625447653234004974365234375
0.0030616430193222085066884208259807564900256693363189697265625
0.0023107309336573901049904922189170974888838827610015869140625
0.001696266277794128939093720731534631340764462947845458984375
0.00121827765207148668198666729978185685467906296253204345703125
0.0008700859626272171298833058017407893203198909759521484375
0.00064073054424281807549268474843984222388826310634613037109375
0.000514977959362521620252650667026728115160949528217315673828125
0.0004749963440453065029352164305720407355693168938159942626953125
0.000501810286706271565897174991022211543167941272258758544921875
0.000572802342824086578414177761686687517794780433177947998046875
)
;

boundaryField
{
    left
    {
        type            cyclic;
    }
    right
    {
        type            cyclic;
    }
    frontAndBack
    {
        type            empty;
    }
}


// ************************************************************************* //
