/*--------------------------------*- C++ -*----------------------------------*\
| =========                 |                                                 |
| \\      /  F ield         | OpenFOAM: The Open Source CFD Toolbox           |
|  \\    /   O peration     | Version:  1912                                  |
|   \\  /    A nd           | Website:  www.openfoam.com                      |
|    \\/     M anipulation  |                                                 |
\*---------------------------------------------------------------------------*/
FoamFile
{
    version     2.0;
    format      ascii;
    class       surfaceScalarField;
    location    "1";
    object      phi;
}
// * * * * * * * * * * * * * * * * * * * * * * * * * * * * * * * * * * * * * //

dimensions      [0 3 -1 0 0 0 0];
oriented        oriented;


internalField   nonuniform List<scalar> 
99
(
0.00020000000000000000958434720477185919662588275969028472900390625
0.0001999999999999999282691842683590266460669226944446563720703125
0.0002000000000000000908995101411846917471848428249359130859375
0.00020000000000000000958434720477185919662588275969028472900390625
0.00020000000000000000958434720477185919662588275969028472900390625
0.00020000000000000000958434720477185919662588275969028472900390625
0.0001999999999999999282691842683590266460669226944446563720703125
0.00020000000000000000958434720477185919662588275969028472900390625
0.00020000000000000000958434720477185919662588275969028472900390625
0.0002000000000000000908995101411846917471848428249359130859375
0.00020000000000000000958434720477185919662588275969028472900390625
0.00020000000000000000958434720477185919662588275969028472900390625
0.00020000000000000000958434720477185919662588275969028472900390625
0.000199999999999999982479292892634248346439562737941741943359375
0.0002000000000000000908995101411846917471848428249359130859375
0.00020000000000000000958434720477185919662588275969028472900390625
0.00020000000000000000958434720477185919662588275969028472900390625
0.00020000000000000000958434720477185919662588275969028472900390625
0.00020000000000000006379445582904708089699852280318737030029296875
0.0002000000000000000908995101411846917471848428249359130859375
0.00020000000000000000958434720477185919662588275969028472900390625
0.00020000000000000000958434720477185919662588275969028472900390625
0.00020000000000000000958434720477185919662588275969028472900390625
0.00020000000000000000958434720477185919662588275969028472900390625
0.00020000000000000000958434720477185919662588275969028472900390625
0.00020000000000000000958434720477185919662588275969028472900390625
0.00020000000000000000958434720477185919662588275969028472900390625
0.00020000000000000000958434720477185919662588275969028472900390625
0.00020000000000000000958434720477185919662588275969028472900390625
0.00020000000000000000958434720477185919662588275969028472900390625
0.0001999999999999999282691842683590266460669226944446563720703125
0.00020000000000000000958434720477185919662588275969028472900390625
0.00020000000000000000958434720477185919662588275969028472900390625
0.00020000000000000000958434720477185919662588275969028472900390625
0.00020000000000000000958434720477185919662588275969028472900390625
0.00020000000000000000958434720477185919662588275969028472900390625
0.0002000000000000000908995101411846917471848428249359130859375
0.00020000000000000000958434720477185919662588275969028472900390625
0.00020000000000000000958434720477185919662588275969028472900390625
0.00020000000000000000958434720477185919662588275969028472900390625
0.00020000000000000000958434720477185919662588275969028472900390625
0.00020000000000000000958434720477185919662588275969028472900390625
0.0002000000000000000366894015169094700468122027814388275146484375
0.00020000000000000000958434720477185919662588275969028472900390625
0.00020000000000000000958434720477185919662588275969028472900390625
0.00020000000000000000958434720477185919662588275969028472900390625
0.00020000000000000000958434720477185919662588275969028472900390625
0.00020000000000000000958434720477185919662588275969028472900390625
0.00020000000000000000958434720477185919662588275969028472900390625
0.00020000000000000000958434720477185919662588275969028472900390625
0.00020000000000000000958434720477185919662588275969028472900390625
0.00020000000000000000958434720477185919662588275969028472900390625
0.00020000000000000000958434720477185919662588275969028472900390625
0.00020000000000000000958434720477185919662588275969028472900390625
0.00020000000000000000958434720477185919662588275969028472900390625
0.00020000000000000000958434720477185919662588275969028472900390625
0.00020000000000000000958434720477185919662588275969028472900390625
0.00020000000000000006379445582904708089699852280318737030029296875
0.00020000000000000000958434720477185919662588275969028472900390625
0.00020000000000000000958434720477185919662588275969028472900390625
0.00020000000000000000958434720477185919662588275969028472900390625
0.00020000000000000000958434720477185919662588275969028472900390625
0.00020000000000000006379445582904708089699852280318737030029296875
0.00020000000000000000958434720477185919662588275969028472900390625
0.00020000000000000000958434720477185919662588275969028472900390625
0.00020000000000000000958434720477185919662588275969028472900390625
0.00020000000000000000958434720477185919662588275969028472900390625
0.00020000000000000006379445582904708089699852280318737030029296875
0.00020000000000000000958434720477185919662588275969028472900390625
0.00020000000000000000958434720477185919662588275969028472900390625
0.00020000000000000000958434720477185919662588275969028472900390625
0.00020000000000000000958434720477185919662588275969028472900390625
0.00020000000000000000958434720477185919662588275969028472900390625
0.00020000000000000000958434720477185919662588275969028472900390625
0.00020000000000000000958434720477185919662588275969028472900390625
0.00020000000000000000958434720477185919662588275969028472900390625
0.00020000000000000000958434720477185919662588275969028472900390625
0.00020000000000000000958434720477185919662588275969028472900390625
0.00020000000000000000958434720477185919662588275969028472900390625
0.00020000000000000000958434720477185919662588275969028472900390625
0.00020000000000000000958434720477185919662588275969028472900390625
0.00020000000000000000958434720477185919662588275969028472900390625
0.00020000000000000000958434720477185919662588275969028472900390625
0.00020000000000000000958434720477185919662588275969028472900390625
0.00020000000000000006379445582904708089699852280318737030029296875
0.00020000000000000000958434720477185919662588275969028472900390625
0.00020000000000000000958434720477185919662588275969028472900390625
0.00020000000000000000958434720477185919662588275969028472900390625
0.00020000000000000000958434720477185919662588275969028472900390625
0.00020000000000000006379445582904708089699852280318737030029296875
0.00020000000000000000958434720477185919662588275969028472900390625
0.00020000000000000000958434720477185919662588275969028472900390625
0.00020000000000000000958434720477185919662588275969028472900390625
0.00020000000000000000958434720477185919662588275969028472900390625
0.00020000000000000000958434720477185919662588275969028472900390625
0.00020000000000000000958434720477185919662588275969028472900390625
0.00020000000000000006379445582904708089699852280318737030029296875
0.0001999999999999999282691842683590266460669226944446563720703125
0.00020000000000000000958434720477185919662588275969028472900390625
)
;

boundaryField
{
    left
    {
        type            cyclic;
        value           uniform -0.00020000000000000000958434720477185919662588275969028472900390625;
    }
    right
    {
        type            cyclic;
        value           uniform 0.00020000000000000000958434720477185919662588275969028472900390625;
    }
    frontAndBack
    {
        type            empty;
        value           nonuniform 0();
    }
}


// ************************************************************************* //
