/*--------------------------------*- C++ -*----------------------------------*\
| =========                 |                                                 |
| \\      /  F ield         | OpenFOAM: The Open Source CFD Toolbox           |
|  \\    /   O peration     | Version:  1912                                  |
|   \\  /    A nd           | Website:  www.openfoam.com                      |
|    \\/     M anipulation  |                                                 |
\*---------------------------------------------------------------------------*/
FoamFile
{
    version     2.0;
    format      ascii;
    class       volScalarField;
    location    "1";
    object      zeta.2.populationBalance;
}
// * * * * * * * * * * * * * * * * * * * * * * * * * * * * * * * * * * * * * //

dimensions      [0 0 0 0 0 0 0];


internalField   nonuniform List<scalar> 
100
(
0.499035695452560601470537449131370522081851959228515625
0.517648441031732797767972442670725286006927490234375
0.52884683821717626273084533750079572200775146484375
0.53452089319578910409092031841282732784748077392578125
0.53715202804896211574714470771141350269317626953125
0.538284763434288660022275507799349725246429443359375
0.53871739725856271352455451051355339586734771728515625
0.538841103231967988307360428734682500362396240234375
0.538851755627992812236470854259096086025238037109375
0.53883057706836989808607540908269584178924560546875
0.5387561257145778714772177409031428396701812744140625
0.538586368222976563657766746473498642444610595703125
0.538291806206201872697647559107281267642974853515625
0.5378423105482033061974789234227500855922698974609375
0.537206527111411258346151953446678817272186279296875
0.53635161671137232541894945825333707034587860107421875
0.5352437395685114562837725316057913005352020263671875
0.5338494196082026466143588550039567053318023681640625
0.532137442589277309679118843632750213146209716796875
0.53008255338264131939496337508899159729480743408203125
0.52766655356337377469344573910348117351531982421875
0.5248800723647708554864266261574812233448028564453125
0.5217263429088305759506738468189723789691925048828125
0.51822289816833577713595104796695522964000701904296875
0.5144009311045494303726854923297651112079620361328125
0.510302549762938095767594859353266656398773193359375
0.5059763475194996029671301585040055215358734130859375
0.50147194486033896954069177809287793934345245361328125
0.49683432650900216653866436899988912045955657958984375
0.49209884761812727749230589324724860489368438720703125
0.487287863082306760276196655468083918094635009765625
0.482409628148342928266600893039139918982982635498046875
0.47745971142673948595103183833998627960681915283203125
0.47242462399008233742137008448480628430843353271484375
0.467287078144804357560104790536570362746715545654296875
0.4620363769844721968382827981258742511272430419921875
0.45667003620896962079456216088146902620792388916015625
0.45119297833148841458950073501910082995891571044921875
0.4456147403838095488737280902569182217121124267578125
0.43994472586127553181967186901601962745189666748046875
0.4342445745417837787982762165484018623828887939453125
0.428672669746992307526767262970679439604282379150390625
0.42319842570912535872906801159842871129512786865234375
0.417769281953620119640646635161829181015491485595703125
0.41234869689931052949560807974194176495075225830078125
0.406920348385746810659924221909022890031337738037109375
0.401454755245400696228585957214818336069583892822265625
0.395921378983066285517367077773087657988071441650390625
0.39053492892387831059153313617571257054805755615234375
0.38543312927957817937141271613654680550098419189453125
0.380605377458417881708641061777598224580287933349609375
0.37598387195438609520437012179172597825527191162109375
0.3714782771015585627338850827072747051715850830078125
0.3670121655567954999099811175256036221981048583984375
0.362546476587567390037492032206500880420207977294921875
0.35805540879384267771712302419473417103290557861328125
0.353482654566663168083096024929545819759368896484375
0.34877777925401820535711294724023900926113128662109375
0.3443231818036001090632680643466301262378692626953125
0.340432357586463452125968842665315605700016021728515625
0.33722447164693114540767737707938067615032196044921875
0.334753560652387094354054397626896388828754425048828125
0.333001991404824948528329287000815384089946746826171875
0.33188880692977729136572406787308864295482635498046875
0.33128679365542768042729449007310904562473297119140625
0.331042842333629405704442660862696357071399688720703125
0.33099695809675011570760716494987718760967254638671875
0.3310204888019601110471512583899311721324920654296875
0.331115546594068888008877138418029062449932098388671875
0.331376311626168984503237879835069179534912109375
0.3318751990620356639993815406342037022113800048828125
0.332682320221697580553410489301313646137714385986328125
0.33386506970702500840531001813360489904880523681640625
0.335485731106768270137763465754687786102294921875
0.337598387103465125136381175252608954906463623046875
0.340246136475309601809868809141335077583789825439453125
0.3434590627087812375606290515861473977565765380859375
0.347252987074811780843219821690581738948822021484375
0.351627532797137598574721550903632305562496185302734375
0.3565664866128008814172289930866099894046783447265625
0.362042802960427179126412511322996579110622406005859375
0.368022010444476077584141648912918753921985626220703125
0.374465037529853217446174085125676356256008148193359375
0.381330329075130258775772063017939217388629913330078125
0.3885734499910051820137368849827907979488372802734375
0.396038153858589314637583811418153345584869384765625
0.40298567510660443513614836774650029838085174560546875
0.409261800558094079871551684846053831279277801513671875
0.4149198007856413905614090253948234021663665771484375
0.4200382207882433771573005287791602313518524169921875
0.424711689943632675348084148936322890222072601318359375
0.42906658281314025149555391180911101400852203369140625
0.433259255282046396029471679867128841578960418701171875
0.437423301969452726911669060427811928093433380126953125
0.44165462286104262279451404538122005760669708251953125
0.4462014858486338386711622661096043884754180908203125
0.4515899335277666626353720857878215610980987548828125
0.458652014079586944905742029732209630310535430908203125
0.46836944457224249926952097666799090802669525146484375
0.4816055775579048958690009385463781654834747314453125
)
;

boundaryField
{
    left
    {
        type            cyclic;
    }
    right
    {
        type            cyclic;
    }
    frontAndBack
    {
        type            empty;
    }
}


// ************************************************************************* //
