/*--------------------------------*- C++ -*----------------------------------*\
| =========                 |                                                 |
| \\      /  F ield         | OpenFOAM: The Open Source CFD Toolbox           |
|  \\    /   O peration     | Version:  1912                                  |
|   \\  /    A nd           | Website:  www.openfoam.com                      |
|    \\/     M anipulation  |                                                 |
\*---------------------------------------------------------------------------*/
FoamFile
{
    version     2.0;
    format      ascii;
    class       volScalarField;
    location    "1";
    object      zeta.3.populationBalance;
}
// * * * * * * * * * * * * * * * * * * * * * * * * * * * * * * * * * * * * * //

dimensions      [0 0 0 0 0 0 0];


internalField   nonuniform List<scalar> 
100
(
0.10050141108137278234124778464320115745067596435546875
0.09303755160359512832446426955357310362160205841064453125
0.08729458930183058018581476744657265953719615936279296875
0.084151027989715465604803057431126944720745086669921875
0.08239192849794273187935544910942553542554378509521484375
0.0812246704098914806824183187927701510488986968994140625
0.0802508843876535149508555377906304784119129180908203125
0.07932199940501162560568815251826890744268894195556640625
0.07841467761385349788394449888073722831904888153076171875
0.07755413258966163680963035176318953745067119598388671875
0.0767752890260244569287095828258316032588481903076171875
0.0761060570855826845626523891041870228946208953857421875
0.07556180122984927638452035125737893395125865936279296875
0.07514491161571380806183384493124322034418582916259765625
0.074846808479881954401236043850076384842395782470703125
0.07465099993242862996822850618627853691577911376953125
0.0745363707896397331698068455807515420019626617431640625
0.0744802031289431010208090810920111835002899169921875
0.07446060970626215691492433279563556425273418426513671875
0.0744583080358747206872749302419833838939666748046875
0.074461552435286015860782526942784897983074188232421875
0.07447340381432394906813243551368941552937030792236328125
0.0745032416626998372777279655565507709980010986328125
0.07455911314238423959199764112781849689781665802001953125
0.07465016556827276661412184921573498286306858062744140625
0.07478659826397930643349099000261048786342144012451171875
0.07497914456614128420053333456962718628346920013427734375
0.075238228489282743538524300674907863140106201171875
0.07557289454242333004430065557244233787059783935546875
0.07598973658627518334984785042252042330801486968994140625
0.07649208958354968002080198630210361443459987640380859375
0.07707970355518926897087084171289461664855480194091796875
0.0777490171780058358930176609646878205239772796630859375
0.07849401963868805898183467206763452850282192230224609375
0.07930752015670995691554168161019333638250827789306640625
0.0801817317558915221287207941713859327137470245361328125
0.08110995124629703789675971847827895544469356536865234375
0.08208791978004235934118781869983649812638759613037109375
0.08311440481857669537735233689090819098055362701416015625
0.0841909542033344726608135033529833890497684478759765625
0.08531997944233728203844435711289406754076480865478515625
0.086502853849725058754671636052080430090427398681640625
0.08774198442686166610204878679724060930311679840087890625
0.089040270897562334706520914551219902932643890380859375
0.09040046846305604955063017769134603440761566162109375
0.09182474732029181907488890601598541252315044403076171875
0.09331498500381053828878208378228009678423404693603515625
0.09487197978467624970289051589134032838046550750732421875
0.09649067580429603052660780804217210970818996429443359375
0.098164103429787485932678237077197991311550140380859375
0.099886013051528887984886750928126275539398193359375
0.1016524198957495517259275175092625431716442108154296875
0.103462145494088220143424905472784303128719329833984375
0.10531646897569434118135944800087600015103816986083984375
0.10721828939261555946327320043565123341977596282958984375
0.109171669996886155917792393665877170860767364501953125
0.111181600939464164667924706009216606616973876953125
0.11325133640304795024089656862997799180448055267333984375
0.11537393436917135758346120155692915432155132293701171875
0.11748281267888194268067536540911532938480377197265625
0.1195287310190693841338571701271575875580310821533203125
0.12154742493954807935896411663634353317320346832275390625
0.123562621869524935647177699138410389423370361328125
0.1255846803016400781149997101238113828003406524658203125
0.127631888457678532855510411536670289933681488037109375
0.1297342943801500225742273642026702873408794403076171875
0.1319204479785940076208561322346213273704051971435546875
0.1339935646082780207333229327559820376336574554443359375
0.135785950224387275131476826572907157242298126220703125
0.1372650702492425323075764254099340178072452545166015625
0.1384227589208813780086160249993554316461086273193359375
0.1392742081993263714156938704036292620003223419189453125
0.139852456900059818334369765580049715936183929443359375
0.1402025217198232809323599212802946567535400390625
0.1403771564571274776955789320709300227463245391845703125
0.140434278707747328684973808776703663170337677001953125
0.140435120015486691880113312436151318252086639404296875
0.1404085923732092400229021222912706434726715087890625
0.14031740111778956414667618446401320397853851318359375
0.140110458308893959245011728853569366037845611572265625
0.1397514069424719285184011141609516926109790802001953125
0.1392102527493484231957410202085156925022602081298828125
0.1384670498687621542632797400074196048080921173095703125
0.1375139754311256456986711782519705593585968017578125
0.1363547118085946252552531632318277843296527862548828125
0.1349890745295862781727436185974511317908763885498046875
0.133408653795472342817873823150875978171825408935546875
0.1316213862267232304059660918937879614531993865966796875
0.129651639116769246129479142837226390838623046875
0.12757899002529449195009192408178932964801788330078125
0.1256900769701857767390862363754422403872013092041015625
0.1240042976876075397907328579094610176980495452880859375
0.1224403607455649967139521550052450038492679595947265625
0.120921163605831660792233606116496957838535308837890625
0.11939736407505034676557187367507140152156352996826171875
0.11780624272574284627790319746054592542350292205810546875
0.115995142656359906396801306982524693012237548828125
0.11370321505694225283633613798883743584156036376953125
0.11059377210351460651960309178321040235459804534912109375
0.1063138707967160867529088363880873657763004302978515625
)
;

boundaryField
{
    left
    {
        type            cyclic;
    }
    right
    {
        type            cyclic;
    }
    frontAndBack
    {
        type            empty;
    }
}


// ************************************************************************* //
