/*--------------------------------*- C++ -*----------------------------------*\
| =========                 |                                                 |
| \\      /  F ield         | OpenFOAM: The Open Source CFD Toolbox           |
|  \\    /   O peration     | Version:  1912                                  |
|   \\  /    A nd           | Website:  www.openfoam.com                      |
|    \\/     M anipulation  |                                                 |
\*---------------------------------------------------------------------------*/
FoamFile
{
    version     2.0;
    format      ascii;
    class       volScalarField;
    location    "1";
    object      zeta.6.populationBalance;
}
// * * * * * * * * * * * * * * * * * * * * * * * * * * * * * * * * * * * * * //

dimensions      [0 0 0 0 0 0 0];


internalField   nonuniform List<scalar> 
100
(
0.01263368263880038089297386250109411776065826416015625
0.02843985422041818422744796635015518404543399810791015625
0.026462355091474598633993764451588504016399383544921875
0.0215968309251390877534504397772252559661865234375
0.04207578948157621179237963815467082895338535308837890625
0.10815688292149423788135464974402566440403461456298828125
0.19927835451508091324512861319817602634429931640625
0.2922779419979681936325732749537564814090728759765625
0.3723222915042210257041688237222842872142791748046875
0.43300555323336242796727901804842986166477203369140625
0.473629609545895113864588665819610469043254852294921875
0.4965303305356385532576268815319053828716278076171875
0.5053173556569661162285456157405860722064971923828125
0.503811506303742273615853264345787465572357177734375
0.49548968238435187050328067925875075161457061767578125
0.483295406926904924649335271169547922909259796142578125
0.46951011926158148224175192808615975081920623779296875
0.455785927679780711319068586817593313753604888916015625
0.4433073543068883903828236725530587136745452880859375
0.43370679972616865693879617538186721503734588623046875
0.428165884059254320259668702419730834662914276123046875
0.425158120759452362591446217265911400318145751953125
0.4237445895790818983783765361295081675052642822265625
0.423367912381658773046666510708746500313282012939453125
0.42361941058817820238147078271140344440937042236328125
0.42414578652102596922901511788950301706790924072265625
0.424628611271236244828486405822332017123699188232421875
0.424791852159331906335637540905736386775970458984375
0.4244147929085919646041702435468323528766632080078125
0.4233264562906564609789938913309015333652496337890625
0.4214138347029188214065698048216290771961212158203125
0.4186239649398924012047018550219945609569549560546875
0.41494861438070962389446094675804488360881805419921875
0.410393558698938676343459519557654857635498046875
0.404982975608554840452057987931766547262668609619140625
0.3997424095098189855690407057409174740314483642578125
0.395534634123293205032467767523485235869884490966796875
0.392377807935290423557717076619155704975128173828125
0.3901319533276808027011384183424524962902069091796875
0.3884174442715389030666983671835623681545257568359375
0.38687578368816133433938375674188137054443359375
0.385102646044215790599452020614990033209323883056640625
0.3828064054823787643044852302409708499908447265625
0.379883675174891521919562364928424358367919921875
0.3763835079048789555855591970612294971942901611328125
0.372500777689853013185938834794797003269195556640625
0.36861200592877330084462528247968293726444244384765625
0.36494347236968815995084014502936042845249176025390625
0.36127552331111634220661699146148748695850372314453125
0.35727010177058726725363158038817346096038818359375
0.3530036360315491617001271151821129024028778076171875
0.3488059862231203123172917912597768008708953857421875
0.345027800205434165281559444338199682533740997314453125
0.3419111353244905782133855609572492539882659912109375
0.33941088534468821791278969612903892993927001953125
0.3373481847124619736888462284696288406848907470703125
0.33549502466917580090211004062439315021038055419921875
0.33356273752793563769358797799213789403438568115234375
0.331061749582753694909342812024988234043121337890625
0.32790563115258208881641621701419353485107421875
0.323898243197058677278477034633397124707698822021484375
0.318943997794335576401181242545135319232940673828125
0.31314883885032862576025536327506415545940399169921875
0.30691057501971241716631766394129954278469085693359375
0.30059298643098386616401285209576599299907684326171875
0.29453996781775326763153088904800824820995330810546875
0.28907184549036879506189734456711448729038238525390625
0.285480768120586703151531082767178304493427276611328125
0.284727894234261480477243821951560676097869873046875
0.286363930067532523882078976384946145117282867431640625
0.28957795401479990982096524021471850574016571044921875
0.2941900893982076770072353610885329544544219970703125
0.29991577819833648010927618088317103683948516845703125
0.30627388927170950960743311952683143317699432373046875
0.31276690565354303696921078881132416427135467529296875
0.318745859355417326952419898589141666889190673828125
0.323651548456686144472627120194374583661556243896484375
0.32694722806434695083765973322442732751369476318359375
0.328699019898626099145388934630318544805049896240234375
0.32930493845208363978827037499286234378814697265625
0.3291780922719720336999671417288482189178466796875
0.32882998147600217553332413444877602159976959228515625
0.32894645616248407993253977110725827515125274658203125
0.330578696836619112531252540065906941890716552734375
0.33558960638609514059993443879648111760616302490234375
0.3439197153147695029673514000023715198040008544921875
0.3538911591925231192590217688120901584625244140625
0.36451566258702883249753767813672311604022979736328125
0.37323158483494534021218669295194558799266815185546875
0.375717619611897146736367858466110192239284515380859375
0.36443989179517199961111373340827412903308868408203125
0.333776975965660138712109983316622674465179443359375
0.2801514426252331713129706258769147098064422607421875
0.2044627660563310411756532403160235844552516937255859375
0.1176681700492916704536838778949459083378314971923828125
0.0445675509661702384800463505598600022494792938232421875
0.0213895523729468184370716699049808084964752197265625
0.025005280610513047623300053601269610226154327392578125
0.2404652335700248888539221070459461770951747894287109375
0.0591869468228995720959773052527452819049358367919921875
)
;

boundaryField
{
    left
    {
        type            cyclic;
    }
    right
    {
        type            cyclic;
    }
    frontAndBack
    {
        type            empty;
    }
}


// ************************************************************************* //
