/*--------------------------------*- C++ -*----------------------------------*\
| =========                 |                                                 |
| \\      /  F ield         | OpenFOAM: The Open Source CFD Toolbox           |
|  \\    /   O peration     | Version:  1912                                  |
|   \\  /    A nd           | Website:  www.openfoam.com                      |
|    \\/     M anipulation  |                                                 |
\*---------------------------------------------------------------------------*/
FoamFile
{
    version     2.0;
    format      ascii;
    class       volScalarField;
    location    "1";
    object      zeta.0.populationBalance;
}
// * * * * * * * * * * * * * * * * * * * * * * * * * * * * * * * * * * * * * //

dimensions      [0 0 0 0 0 0 0];


internalField   nonuniform List<scalar> 
100
(
0.63578182432393226530820129482890479266643524169921875
0.64651857510395693839910791211877949535846710205078125
0.6517250743311635563514983005006797611713409423828125
0.65383965487027173590917072942829690873622894287109375
0.654491146620774344455639948137104511260986328125
0.65458358186600940076260712885414250195026397705078125
0.654533354007266865437486558221280574798583984375
0.6543420537543103154831669598934240639209747314453125
0.653889614825052145619110888219438493251800537109375
0.65312017951608891674908363711438141763210296630859375
0.651995514021489253053687207284383475780487060546875
0.65048979149868058069472454008064232766628265380859375
0.648585221714744530885354834026657044887542724609375
0.6462685157645424727235194950480945408344268798828125
0.64352875310337676051375410679611377418041229248046875
0.64035655711104333409622313411091454327106475830078125
0.63674442900750261031816989998333156108856201171875
0.6326880259967442299284812179394066333770751953125
0.6281880198658116309928800546913407742977142333984375
0.623256773487124160482153456541709601879119873046875
0.6179174365265736046382016866118647158145904541015625
0.61220051736024017063897417756379581987857818603515625
0.60614596152037314436000770001555792987346649169921875
0.5998021160366278081710333935916423797607421875
0.59322246493843044934379804544732905924320220947265625
0.586461367756803131356946323649026453495025634765625
0.57956962763871844313001702175824902951717376708984375
0.5725904930763008326977114847977645695209503173828125
0.565556489889364133460958328214474022388458251953125
0.5584873442569924240075351917766965925693511962890625
0.55138946939933841662195845856331288814544677734375
0.54425730209301825812673314430867321789264678955078125
0.53707648806122332274526343098841607570648193359375
0.52982835933598959599066802184097468852996826171875
0.522494834843717281813724184758029878139495849609375
0.515068716520801661573614182998426258563995361328125
0.5075498870151238239856184009113349020481109619140625
0.499937202577982964246672281660721637308597564697265625
0.492255369814894538915694965908187441527843475341796875
0.484718860248741501006719545330270193517208099365234375
0.477372256621169943624494180767214857041835784912109375
0.47016789938422931527384207583963871002197265625
0.46304287051322001733666411382728256285190582275390625
0.455942554611419803567429198665195144712924957275390625
0.448839979290928059452170373333501629531383514404296875
0.441709247546643535287103077280335128307342529296875
0.434504271742315040238935353045235387980937957763671875
0.427408300635303495251804406507289968430995941162109375
0.420622616437191398919281937196501530706882476806640625
0.414165144156884934556472899203072302043437957763671875
0.4079791016374809675681945009273476898670196533203125
0.401965833957963758482634375468478538095951080322265625
0.396026797688119935880735056343837641179561614990234375
0.390099025793177844878556470575858838856220245361328125
0.384154137395260331100388384584221057593822479248046875
0.37813736336767311829731852412805892527103424072265625
0.37200376529956591387104936075047589838504791259765625
0.366155201175240418987044677123776637017726898193359375
0.3609093930502365044077350830775685608386993408203125
0.35643060507251556057184416204108856618404388427734375
0.352820365904896238173904521318036131560802459716796875
0.350103659157106561483630002840072847902774810791015625
0.3482307103098971623467150493524968624114990234375
0.347088498785434629301249742638901807367801666259765625
0.3465173703071913191564590306370519101619720458984375
0.346328668608968659459179662007954902946949005126953125
0.34632221260133844165096661527059040963649749755859375
0.34639546959769251799343692255206406116485595703125
0.346649318484561153042022851877845823764801025390625
0.34724203375490303447037376827211119234561920166015625
0.348305082458095383035612258026958443224430084228515625
0.349974752122494348061110258640837855637073516845703125
0.352385159352613552830035814622533507645130157470703125
0.355661765559797837799038688899599947035312652587890625
0.35991460873609126824845816372544504702091217041015625
0.36523114402054257521257341068121604621410369873046875
0.371669824890688449414710703422315418720245361328125
0.37925543834001806953182267534430138766765594482421875
0.387977022333838572620834383997134864330291748046875
0.39778889124938288102129035905818454921245574951171875
0.408615319756117700844555429284810088574886322021484375
0.42035899573443791243931855206028558313846588134765625
0.4329130482679570679493963325512595474720001220703125
0.44617624607287009741440897414577193558216094970703125
0.45990357013731120172650435051764361560344696044921875
0.47280588676306523066017462042509578168392181396484375
0.48446177362347297989941807827563025057315826416015625
0.494907254793280959592749468356487341225147247314453125
0.50422436697235817337769958612625487148761749267578125
0.5125663174683603440229262560023926198482513427734375
0.52015853469076211990085312208975665271282196044921875
0.52727782851122928509113307882216759026050567626953125
0.5342022685012626226352949743159115314483642578125
0.54112208577373233087115522721433080732822418212890625
0.54822349307589501865578540673595853149890899658203125
0.556010078320274825358637826866470277309417724609375
0.565461973173322807184604243957437574863433837890625
0.578000143901778340449482129770331084728240966796875
0.59501423350276183565910059769521467387676239013671875
0.61690859806503872686533895830507390201091766357421875
)
;

boundaryField
{
    left
    {
        type            cyclic;
    }
    right
    {
        type            cyclic;
    }
    frontAndBack
    {
        type            empty;
    }
}


// ************************************************************************* //
