/*--------------------------------*- C++ -*----------------------------------*\
| =========                 |                                                 |
| \\      /  F ield         | OpenFOAM: The Open Source CFD Toolbox           |
|  \\    /   O peration     | Version:  1912                                  |
|   \\  /    A nd           | Website:  www.openfoam.com                      |
|    \\/     M anipulation  |                                                 |
\*---------------------------------------------------------------------------*/
FoamFile
{
    version     2.0;
    format      ascii;
    class       volScalarField;
    location    "1";
    object      zeta.5.populationBalance;
}
// * * * * * * * * * * * * * * * * * * * * * * * * * * * * * * * * * * * * * //

dimensions      [0 0 0 0 0 0 0];


internalField   nonuniform List<scalar> 
100
(
0.12919477517014710254983356207958422601222991943359375
0.12273392994890551521702803938751458190381526947021484375
0.115355475197958690092292499684845097362995147705078125
0.11063636984595870416114848922006785869598388671875
0.10800123325870124302294783547040424309670925140380859375
0.10641405712436662056585845448353211395442485809326171875
0.10528094281563314671412712186793214641511440277099609375
0.1043049537933733172945238720785710029304027557373046875
0.1033563506002017351459443261774140410125255584716796875
0.10240700643865628671758116752243950031697750091552734375
0.10148868036159360006553953326147166080772876739501953125
0.1006433566188418560205519725059275515377521514892578125
0.09990672545042249275137891117992694489657878875732421875
0.09930174135430065718299630361798335798084735870361328125
0.09883626398724874861922984337070374749600887298583984375
0.09850416506650143400047880959391477517783641815185546875
0.0982884635220035163261087518549175001680850982666015625
0.09816530780609948603210312967348727397620677947998046875
0.09810798025464183280686114585478208027780055999755859375
0.09809034240735592380389107347582466900348663330078125
0.09808958156113715964874444352972204796969890594482421875
0.09809466780147001185863331329528591595590114593505859375
0.09811183425863488627438613320919102989137172698974609375
0.098149877517663630666078233844018541276454925537109375
0.09821659001135175925956133369254530407488346099853515625
0.09832117062783607419618192579946480691432952880859375
0.09847436918303147102005112856204505078494548797607421875
0.09868827911140100328513113936423906125128269195556640625
0.09897552325075122114927950178753235377371311187744140625
0.0993479269343387205726259026050684042274951934814453125
0.0998149737793474212121935806862893514335155487060546875
0.1003824399610655782044688066889648325741291046142578125
0.1010515883557444871687636123169795610010623931884765625
0.1018191640924672736190359501051716506481170654296875
0.102678181597596729357491085465881042182445526123046875
0.1036184388057404259786409284060937352478504180908203125
0.10462866264898766643920424712632666341960430145263671875
0.1056986946883314015810384489668649621307849884033203125
0.10682114413029598909421480357195832766592502593994140625
0.1079923641189795002759410635917447507381439208984375
0.10921251925171239494094521660372265614569187164306640625
0.110484425835506827606735669178306125104427337646484375
0.1118106380945158295769914502670872025191783905029296875
0.1131953329351718384732095046274480409920215606689453125
0.11464328832174118522058137159547186456620693206787109375
0.1161585784410299193591953326176735572516918182373046875
0.11774404716864160513889459025449468754231929779052734375
0.11940130869170793859179724449859349988400936126708984375
0.12112757939681662033848397186375223100185394287109375
0.12291310023178493582296511021922924555838108062744140625
0.12474757654173319887380699810819351114332675933837890625
0.1266230388859861388795025050058029592037200927734375
0.128535371175419077527379840830690227448940277099609375
0.13048457055714379748678766191005706787109375
0.1324742064415798392662537708019954152405261993408203125
0.1345107612493076920667789408980752341449260711669921875
0.1366036329269712246148316125982091762125492095947265625
0.1387642324455173048480816078154020942747592926025390625
0.1409703257348817462268897315880167298018932342529296875
0.14307203435303250671495334245264530181884765625
0.145079446221684060791545789470546878874301910400390625
0.147046092390209270917011963319964706897735595703125
0.1490068113065163013519764945158385671675205230712890625
0.15097658533746771691852472940809093415737152099609375
0.1529805104925724135167541817281744442880153656005859375
0.15505914023476885521546364543610252439975738525390625
0.1572117679164869163965789766734815202653408050537109375
0.159152687235273038179883542397874407470226287841796875
0.1607758473071148330735269382785190828144550323486328125
0.162070681751979417395403970658662728965282440185546875
0.1630495763819111709747033955864026211202144622802734375
0.1637435724418976057403796176004107110202312469482421875
0.1641952832704523801421458983895718120038509368896484375
0.16445350694474025754487911399337463080883026123046875
0.1645702614199667512817626402465975843369960784912109375
0.1645997162042589778696566327198524959385395050048828125
0.164593350710469821240877763557364232838153839111328125
0.1645594126340129970120784719256334938108921051025390625
0.164453956287081981546549513950594700872898101806640625
0.1642395519865181008345444979568128474056720733642578125
0.1638850362712360730910177153418771922588348388671875
0.1633658874135229532864599377717240713536739349365234375
0.1626660218963606185926806801944621838629245758056640625
0.1617794538748707211528454763538320548832416534423828125
0.1607104335140611406362864954644464887678623199462890625
0.15946514244569964802167305606417357921600341796875
0.1580404982948420411492662651653517968952655792236328125
0.1564366449798157143735721774646663106977939605712890625
0.15467045725092332109085191405029036104679107666015625
0.152791012405722403943997278474853374063968658447265625
0.1510356470881376866888246013331809081137180328369140625
0.149471465682923021489614257006905972957611083984375
0.1480278957908865156145594710324076004326343536376953125
0.1466339009698408857307327934904606081545352935791015625
0.1452400646812077311675892588027636520564556121826171875
0.1437968033374972531834856681598466821014881134033203125
0.1421814112485757508608230637037195265293121337890625
0.140186350942097914806794278774759732186794281005859375
0.1375500607385423956774417320048087276518344879150390625
0.1339977065664033351044537312191096134483814239501953125
)
;

boundaryField
{
    left
    {
        type            cyclic;
    }
    right
    {
        type            cyclic;
    }
    frontAndBack
    {
        type            empty;
    }
}


// ************************************************************************* //
