/*--------------------------------*- C++ -*----------------------------------*\
| =========                 |                                                 |
| \\      /  F ield         | OpenFOAM: The Open Source CFD Toolbox           |
|  \\    /   O peration     | Version:  1912                                  |
|   \\  /    A nd           | Website:  www.openfoam.com                      |
|    \\/     M anipulation  |                                                 |
\*---------------------------------------------------------------------------*/
FoamFile
{
    version     2.0;
    format      ascii;
    class       volScalarField;
    location    "1";
    object      zeta.1.populationBalance;
}
// * * * * * * * * * * * * * * * * * * * * * * * * * * * * * * * * * * * * * //

dimensions      [0 0 0 0 0 0 0];


internalField   nonuniform List<scalar> 
100
(
0.057249824978044462631121547246948466636240482330322265625
0.05260991748094011322134377905967994593083858489990234375
0.04991759757494791671650347097966005094349384307861328125
0.048306552822392483104163574125777813605964183807373046875
0.047207399012253202508215821353587671183049678802490234375
0.046338180561824753034283475017218734137713909149169921875
0.04558998623438663411189253338307025842368602752685546875
0.044933344827295447487802704245041240938007831573486328125
0.04436714031377621270113564833081909455358982086181640625
0.043895719607072246348788979730670689605176448822021484375
0.0435201010835110924102053786555188708007335662841796875
0.04323570677954424734679150787997059524059295654296875
0.04303292803102291841366167091109673492610454559326171875
0.042898738254883363174574384402149007655680179595947265625
0.04281846112532051995547277556397602893412113189697265625
0.042777296404817644059903614106588065624237060546875
0.04276142255610528020159932793831103481352329254150390625
0.042758637558803137823648654602948226965963840484619140625
0.04276028992263762595893439311112160794436931610107421875
0.04276689131568099655478221166049479506909847259521484375
0.042785322460838569325058955428175977431237697601318359375
0.04282149056904975548132341600648942403495311737060546875
0.0428817162798148798774633405628264881670475006103515625
0.042972702550849402325372494715338689275085926055908203125
0.0431012117683116924293784677502117119729518890380859375
0.043273549475062893232557570399876567535102367401123046875
0.043494978092496396071542363870321423746645450592041015625
0.04376916733390390223945587422349490225315093994140625
0.044097817881357685709797777917628991417586803436279296875
0.044480579540073221511686796247886377386748790740966796875
0.044915309019386763511594296005569049157202243804931640625
0.04539863192680688996905047360996832139790058135986328125
0.045926698614214729599058983922077459283173084259033203125
0.046495984989114357011086298143709427677094936370849609375
0.047103964743464628306401920099233393557369709014892578125
0.0477489118866054329526349420120823197066783905029296875
0.0484303403249109754025170104796416126191616058349609375
0.0491492478404723376339546803137636743485927581787109375
0.049907481828773199439286401002391357906162738800048828125
0.050705510608729444099740391038722009398043155670166015625
0.051544057767518310086973798433973570354282855987548828125
0.052424290300972876954777035507504479028284549713134765625
0.05334790402507959272693227603667764924466609954833984375
0.054316904839522006653851349256001412868499755859375
0.0553332291921010688273696587202721275389194488525390625
0.056398740592408645733168981450944556854665279388427734375
0.057515281918805151450957424685839214362204074859619140625
0.058681804015488836512304260395467281341552734375
0.059895554583864134279291846496562357060611248016357421875
0.06115393302447498513618739934827317483723163604736328125
0.06245550645630885966408385456816176883876323699951171875
0.0638003393056545131667434134215000085532665252685546875
0.06518982111906705678716633656222256831824779510498046875
0.0666260543937761962052235276132705621421337127685546875
0.06811125948905928650933816470569581724703311920166015625
0.0696476203837073926106171484207152388989925384521484375
0.07123631807669951465644686550149344839155673980712890625
0.072872676868531549576601946682785637676715850830078125
0.0745485909787417799776676474721170961856842041015625
0.076254201861568671194646640287828631699085235595703125
0.0779800034044364764884704754877020604908466339111328125
0.07971868395711734223141320399008691310882568359375
0.08146647027539836993792476960152271203696727752685546875
0.08322411933583569176864358496459317393600940704345703125
0.0849979720789393045077275701260077767074108123779296875
0.0868015491119720206114607208291999995708465576171875
0.0886580558388464223806835207142285071313381195068359375
0.09054297645318387655066771912970580160617828369140625
0.092262961053719838577791279021766968071460723876953125
0.09375092213025305876161752394182258285582065582275390625
0.0949760460800886663346176419508992694318294525146484375
0.09592932527699916944730063050883472897112369537353515625
0.0966218274865381088201132797621539793908596038818359375
0.09708074191474931613488053017135825939476490020751953125
0.0973453793114333887359634900349192321300506591796875
0.097463908920927544432544209485058672726154327392578125
0.0974915328592243224381519439702969975769519805908203125
0.09748163555961851522990713192484690807759761810302734375
0.097436012086362600026490099480724893510341644287109375
0.0972985528096668994546547537538572214543819427490234375
0.09702473509894049552571004824130795896053314208984375
0.096578198660174641165809816811815835535526275634765625
0.095933250739859310396440150725538842380046844482421875
0.09507705099200995657593438181720557622611522674560546875
0.094005584066970460099810225074179470539093017578125
0.09270424674654643981686064080349751748144626617431640625
0.0911734873983705285116485583785106427967548370361328125
0.08942911193594928198624671722427592612802982330322265625
0.0875021201010627580618717047400423325598239898681640625
0.08549894665385159020498662130194134078919887542724609375
0.08370239396137650611517955212548258714377880096435546875
0.0820872779098593963187369126899284310638904571533203125
0.08056892725952698175451160977900144644081592559814453125
0.07907563571763213949861182072709198109805583953857421875
0.0775646143083312533672568633846822194755077362060546875
0.07594867438564946449108816750594996847212314605712890625
0.07403261124662673109408927984986803494393825531005859375
0.071501405290656794289105846473830752074718475341796875
0.06799192394484922241648661156432353891432285308837890625
0.06323140773994971597371517191277234815061092376708984375
)
;

boundaryField
{
    left
    {
        type            cyclic;
    }
    right
    {
        type            cyclic;
    }
    frontAndBack
    {
        type            empty;
    }
}


// ************************************************************************* //
