/*--------------------------------*- C++ -*----------------------------------*\
| =========                 |                                                 |
| \\      /  F ield         | OpenFOAM: The Open Source CFD Toolbox           |
|  \\    /   O peration     | Version:  1912                                  |
|   \\  /    A nd           | Website:  www.openfoam.com                      |
|    \\/     M anipulation  |                                                 |
\*---------------------------------------------------------------------------*/
FoamFile
{
    version     2.0;
    format      ascii;
    class       volScalarField;
    location    "1";
    object      zeta.4.populationBalance;
}
// * * * * * * * * * * * * * * * * * * * * * * * * * * * * * * * * * * * * * //

dimensions      [0 0 0 0 0 0 0];


internalField   nonuniform List<scalar> 
100
(
0.42580802272053064339019101680605672299861907958984375
0.439737255872551358049094005764345638453960418701171875
0.454967359127020076758896038882085122168064117431640625
0.464428763774007269393706565097090788185596466064453125
0.46972283111420132239999247758532874286174774169921875
0.47271395682372541191540449290187098085880279541015625
0.4744458376557869616618745567393489181995391845703125
0.47544730762476827834461801103316247463226318359375
0.475997071970979568344972676641191355884075164794921875
0.476263145012730315652760282318922691047191619873046875
0.4763615660818463215520068843034096062183380126953125
0.476378366493530602809869378688745200634002685546875
0.476369227413252993574843685564701445400714874267578125
0.47633289430308589640361560668679885566234588623046875
0.476233042079489743425568804013892076909542083740234375
0.47603972269952710139051532678422518074512481689453125
0.47572136696811806455542637195321731269359588623046875
0.475244413824115863320685093640349805355072021484375
0.474574089039755120378316632923088036477565765380859375
0.4736765179466397857055426356964744627475738525390625
0.472519626535398196143233917609904892742633819580078125
0.471074755770846620439584739870042540132999420166015625
0.46932059175111451310158372507430613040924072265625
0.467246900833196920910239668955910019576549530029296875
0.4648570309340824824317905950010754168033599853515625
0.462168792599649103092218638266786001622676849365234375
0.45921328345927536762616227861144579946994781494140625
0.4560315584743779293575016708928160369396209716796875
0.45266946808193397888686604346730746328830718994140625
0.4491714525377545896844821982085704803466796875
0.44557453777042699272215031669475138187408447265625
0.441903786549759758361943795534898526966571807861328125
0.43817016831613975202941446696058847010135650634765625
0.43437123739823046975061515695415437221527099609375
0.4304945318280852806225311724119819700717926025390625
0.4265264769050549631401736405678093433380126953125
0.42245611661321935681456807287759147584438323974609375
0.4182779181751212771445125326863490045070648193359375
0.413993345654390498822294830461032688617706298828125
0.40961011624516741047585810520104132592678070068359375
0.4051409673277441836347634307458065450191497802734375
0.400612362683366474147561575591680593788623809814453125
0.39614238685070002343735495742294006049633026123046875
0.391743092033544459962257633378612808883190155029296875
0.38736873009644712251287046456127427518367767333984375
0.382995219178681456373425362471607513725757598876953125
0.37860722180958383820126300634001381695270538330078125
0.374169279450347447291136404601274989545345306396484375
0.36970441582330371144138325689709745347499847412109375
0.365440653541043325436277200424228794872760772705078125
0.361423103226798492215721125830896198749542236328125
0.35761511345208318868316155203501693904399871826171875
0.353943371295997788461562549855443648993968963623046875
0.35033307993085271991873241859138943254947662353515625
0.34673472285542195070462412331835366785526275634765625
0.343127763632455728970427344393101520836353302001953125
0.33948012874980248998468823629082180559635162353515625
0.3357323032536416729243455847608856856822967529296875
0.331844526803930450764568149679689668118953704833984375
0.32822722496577705353359988293959759175777435302734375
0.32516271736568358452501570354797877371311187744140625
0.32273463492236287297743047020048834383487701416015625
0.32096185694604539850871560702216811478137969970703125
0.31979409551135429268242660327814519405364990234375
0.319125946380774683230896471286541782319545745849609375
0.31881980221523098517621974679059349000453948974609375
0.31873018733048763539983383452636189758777618408203125
0.318728087375455881868901997222565114498138427734375
0.318759383162162623914781534040230326354503631591796875
0.3188647714053505222153717113542370498180389404296875
0.3190970418532368402253496242337860167026519775390625
0.3194989317530934069822023957385681569576263427734375
0.320113242353482763125072096954681910574436187744140625
0.32098068924171718752091919668600894510746002197265625
0.32213836576572540959517709779902361333370208740234375
0.323618241956355301436332183584454469382762908935546875
0.325446222572453980337314760618028230965137481689453125
0.327640494243309543520581428310833871364593505859375
0.330209760224426052133139819488860666751861572265625
0.333155191133263250957696754994685761630535125732421875
0.3364724750000858133347492184839211404323577880859375
0.3401525741018840420792912482284009456634521484375
0.34418129274865172373409905048902146518230438232421875
0.34853796157209548933764153844094835221767425537109375
0.35319312016472126369848183458088897168636322021484375
0.35811839522960287052200101243215613067150115966796875
0.363061954477271575658647861928329803049564361572265625
0.36756108825235955794852316103060729801654815673828125
0.371636129095199496674695183173753321170806884765625
0.37534117139051248468462063101469539105892181396484375
0.37872872939711366147008675397955812513828277587890625
0.38186540212520292403297617056523449718952178955078125
0.38485133321271358664006356775644235312938690185546875
0.387789966853680112546243208271334879100322723388671875
0.390749005300272622687174361999495886266231536865234375
0.393851375362756439546529918516171164810657501220703125
0.3973762959202298272742837070836685597896575927734375
0.40177354823200672750971307323197834193706512451171875
0.4075902864800535763123434662702493369579315185546875
0.41538937297724631836359776571043767035007476806640625
)
;

boundaryField
{
    left
    {
        type            cyclic;
    }
    right
    {
        type            cyclic;
    }
    frontAndBack
    {
        type            empty;
    }
}


// ************************************************************************* //
